SIRIUS 6.5.1, git hash: 03934cb413e35367d189966c763df8be178f72e3

     Program PWSCF v.6.5 starts on 10Mar2020 at 14:26:29 

     This program is part of the open-source Quantum ESPRESSO suite
     for quantum simulation of materials; please cite
         "P. Giannozzi et al., J. Phys.:Condens. Matter 21 395502 (2009);
         "P. Giannozzi et al., J. Phys.:Condens. Matter 29 465901 (2017);
          URL http://www.quantum-espresso.org", 
     in publications or presentations arising from this work. More details at
     http://www.quantum-espresso.org/quote

     Parallel version (MPI & OpenMP), running on     900 processor cores
     Number of MPI processes:               100
     Threads/MPI process:                     9

     MPI processes distributed on    25 nodes
     R & G space division:  proc/nbgrp/npool/nimage =     100
     Reading input from pw.in
     Message from routine read_cards :
     DEPRECATED: no units specified in CELL_PARAMETERS card
Warning: card 1 1 1  0 0 0 ignored

     Current dimensions of program PWSCF are:
     Max number of different atomic species (ntypx) = 10
     Max number of k-points (npk) =  40000
     Max angular momentum in pseudopotentials (lmaxx) =  3
     Message from routine cell_base_init:
     DEPRECATED: use true lattice parameter, not A to a.u. conversion factor

     gamma-point specific algorithms are used

     Subspace diagonalization in iterative solution of the eigenvalue problem:
     one sub-group per band group will be used
     scalapack distributed-memory algorithm (size of sub-group: 10* 10 procs)

     Message from routine setup:
     using ibrav=0 with symmetry is DISCOURAGED, use correct ibrav instead
 
     Parallelization info
     --------------------
     sticks:   dense  smooth     PW     G-vecs:    dense   smooth      PW
     Min         804     213     51               171662    23638    2944
     Max         810     216     54               171672    23648    2966
     Sum       80461   21449   5377             17166821  2364101  295907
 


     bravais-lattice index     =            0
     lattice parameter (alat)  =       1.0000  a.u.
     unit-cell volume          =   69174.1805 (a.u.)^3
     number of atoms/cell      =          512
     number of atomic types    =            2
     number of electrons       =      2058.00
     number of Kohn-Sham states=         1235
     kinetic-energy cutoff     =      40.0000  Ry
     charge density cutoff     =     600.0000  Ry
     convergence threshold     =      1.0E-10
     mixing beta               =       0.7000
     number of iterations used =            8  plain     mixing
     Exchange-correlation= SLA  PZ   NOGX NOGC
                           (   1   1   0   0   0   0   0)

     celldm(1)=   1.000000  celldm(2)=   0.000000  celldm(3)=   0.000000
     celldm(4)=   0.000000  celldm(5)=   0.000000  celldm(6)=   0.000000

     crystal axes: (cart. coord. in units of alat)
               a(1) = (  41.050143   0.000000   0.000000 )  
               a(2) = (   0.000000  41.050143   0.000000 )  
               a(3) = (   0.000000   0.000000  41.050143 )  

     reciprocal axes: (cart. coord. in units 2 pi/alat)
               b(1) = (  0.024360  0.000000  0.000000 )  
               b(2) = (  0.000000  0.024360  0.000000 )  
               b(3) = (  0.000000  0.000000  0.024360 )  


     PseudoPot. # 1 for Ge read from file:
     ./ge_lda_v1.uspp.F.UPF
     MD5 check sum: 575f587c0f86b3eee266efe92ef02c15
     Pseudo is Ultrasoft + core correction, Zval = 14.0
     Generated by new atomic code, or converted to UPF format
     Using radial grid of  873 points,  6 beta functions with: 
                l(1) =   0
                l(2) =   0
                l(3) =   1
                l(4) =   1
                l(5) =   2
                l(6) =   2
     Q(r) pseudized with  8 coefficients,  rinner =    1.400   1.400   1.400
                                                       1.400   1.400

     PseudoPot. # 2 for Si read from file:
     ./si_lda_v1.uspp.F.UPF
     MD5 check sum: ca10e49b2835512e91ee5100d37237e0
     Pseudo is Ultrasoft + core correction, Zval =  4.0
     Generated by new atomic code, or converted to UPF format
     Using radial grid of  899 points,  6 beta functions with: 
                l(1) =   0
                l(2) =   0
                l(3) =   1
                l(4) =   1
                l(5) =   2
                l(6) =   2
     Q(r) pseudized with  8 coefficients,  rinner =    0.900   0.900   0.900
                                                       0.900   0.900

     atomic species   valence    mass     pseudopotential
        Ge            14.00    72.61000     Ge( 1.00)
        Si             4.00    28.08550     Si( 1.00)

     24 Sym. Ops. (no inversion) found



   Cartesian axes

     site n.     atom                  positions (alat units)
         1           Ge  tau(   1) = (   0.0000000   0.0000000   0.0000000  )
         2           Si  tau(   2) = (  20.5250715  20.5250715  20.5250715  )
         3           Si  tau(   3) = (  20.5250715  20.5250715  30.7876073  )
         4           Si  tau(   4) = (  20.5250715  20.5250715   0.0000000  )
         5           Si  tau(   5) = (  20.5250715  20.5250715  10.2625357  )
         6           Si  tau(   6) = (  20.5250715  30.7876073  20.5250715  )
         7           Si  tau(   7) = (  20.5250715  30.7876073  30.7876073  )
         8           Si  tau(   8) = (  20.5250715  30.7876073   0.0000000  )
         9           Si  tau(   9) = (  20.5250715  30.7876073  10.2625357  )
        10           Si  tau(  10) = (  20.5250715   0.0000000  20.5250715  )
        11           Si  tau(  11) = (  20.5250715   0.0000000  30.7876073  )
        12           Si  tau(  12) = (  20.5250715   0.0000000   0.0000000  )
        13           Si  tau(  13) = (  20.5250715   0.0000000  10.2625357  )
        14           Si  tau(  14) = (  20.5250715  10.2625357  20.5250715  )
        15           Si  tau(  15) = (  20.5250715  10.2625357  30.7876073  )
        16           Si  tau(  16) = (  20.5250715  10.2625357   0.0000000  )
        17           Si  tau(  17) = (  20.5250715  10.2625357  10.2625357  )
        18           Si  tau(  18) = (  30.7876073  20.5250715  20.5250715  )
        19           Si  tau(  19) = (  30.7876073  20.5250715  30.7876073  )
        20           Si  tau(  20) = (  30.7876073  20.5250715   0.0000000  )
        21           Si  tau(  21) = (  30.7876073  20.5250715  10.2625357  )
        22           Si  tau(  22) = (  30.7876073  30.7876073  20.5250715  )
        23           Si  tau(  23) = (  30.7876073  30.7876073  30.7876073  )
        24           Si  tau(  24) = (  30.7876073  30.7876073   0.0000000  )
        25           Si  tau(  25) = (  30.7876073  30.7876073  10.2625357  )
        26           Si  tau(  26) = (  30.7876073   0.0000000  20.5250715  )
        27           Si  tau(  27) = (  30.7876073   0.0000000  30.7876073  )
        28           Si  tau(  28) = (  30.7876073   0.0000000   0.0000000  )
        29           Si  tau(  29) = (  30.7876073   0.0000000  10.2625357  )
        30           Si  tau(  30) = (  30.7876073  10.2625357  20.5250715  )
        31           Si  tau(  31) = (  30.7876073  10.2625357  30.7876073  )
        32           Si  tau(  32) = (  30.7876073  10.2625357   0.0000000  )
        33           Si  tau(  33) = (  30.7876073  10.2625357  10.2625357  )
        34           Si  tau(  34) = (   0.0000000  20.5250715  20.5250715  )
        35           Si  tau(  35) = (   0.0000000  20.5250715  30.7876073  )
        36           Si  tau(  36) = (   0.0000000  20.5250715   0.0000000  )
        37           Si  tau(  37) = (   0.0000000  20.5250715  10.2625357  )
        38           Si  tau(  38) = (   0.0000000  30.7876073  20.5250715  )
        39           Si  tau(  39) = (   0.0000000  30.7876073  30.7876073  )
        40           Si  tau(  40) = (   0.0000000  30.7876073   0.0000000  )
        41           Si  tau(  41) = (   0.0000000  30.7876073  10.2625357  )
        42           Si  tau(  42) = (   0.0000000   0.0000000  20.5250715  )
        43           Si  tau(  43) = (   0.0000000   0.0000000  30.7876073  )
        44           Si  tau(  44) = (   0.0000000   0.0000000  10.2625357  )
        45           Si  tau(  45) = (   0.0000000  10.2625357  20.5250715  )
        46           Si  tau(  46) = (   0.0000000  10.2625357  30.7876073  )
        47           Si  tau(  47) = (   0.0000000  10.2625357   0.0000000  )
        48           Si  tau(  48) = (   0.0000000  10.2625357  10.2625357  )
        49           Si  tau(  49) = (  10.2625357  20.5250715  20.5250715  )
        50           Si  tau(  50) = (  10.2625357  20.5250715  30.7876073  )
        51           Si  tau(  51) = (  10.2625357  20.5250715   0.0000000  )
        52           Si  tau(  52) = (  10.2625357  20.5250715  10.2625357  )
        53           Si  tau(  53) = (  10.2625357  30.7876073  20.5250715  )
        54           Si  tau(  54) = (  10.2625357  30.7876073  30.7876073  )
        55           Si  tau(  55) = (  10.2625357  30.7876073   0.0000000  )
        56           Si  tau(  56) = (  10.2625357  30.7876073  10.2625357  )
        57           Si  tau(  57) = (  10.2625357   0.0000000  20.5250715  )
        58           Si  tau(  58) = (  10.2625357   0.0000000  30.7876073  )
        59           Si  tau(  59) = (  10.2625357   0.0000000   0.0000000  )
        60           Si  tau(  60) = (  10.2625357   0.0000000  10.2625357  )
        61           Si  tau(  61) = (  10.2625357  10.2625357  20.5250715  )
        62           Si  tau(  62) = (  10.2625357  10.2625357  30.7876073  )
        63           Si  tau(  63) = (  10.2625357  10.2625357   0.0000000  )
        64           Si  tau(  64) = (  10.2625357  10.2625357  10.2625357  )
        65           Si  tau(  65) = (  20.5250715  25.6563394  25.6563394  )
        66           Si  tau(  66) = (  20.5250715  25.6563394  35.9188751  )
        67           Si  tau(  67) = (  20.5250715  25.6563394   5.1312679  )
        68           Si  tau(  68) = (  20.5250715  25.6563394  15.3938036  )
        69           Si  tau(  69) = (  20.5250715  35.9188751  25.6563394  )
        70           Si  tau(  70) = (  20.5250715  35.9188751  35.9188751  )
        71           Si  tau(  71) = (  20.5250715  35.9188751   5.1312679  )
        72           Si  tau(  72) = (  20.5250715  35.9188751  15.3938036  )
        73           Si  tau(  73) = (  20.5250715   5.1312679  25.6563394  )
        74           Si  tau(  74) = (  20.5250715   5.1312679  35.9188751  )
        75           Si  tau(  75) = (  20.5250715   5.1312679   5.1312679  )
        76           Si  tau(  76) = (  20.5250715   5.1312679  15.3938036  )
        77           Si  tau(  77) = (  20.5250715  15.3938036  25.6563394  )
        78           Si  tau(  78) = (  20.5250715  15.3938036  35.9188751  )
        79           Si  tau(  79) = (  20.5250715  15.3938036   5.1312679  )
        80           Si  tau(  80) = (  20.5250715  15.3938036  15.3938036  )
        81           Si  tau(  81) = (  30.7876073  25.6563394  25.6563394  )
        82           Si  tau(  82) = (  30.7876073  25.6563394  35.9188751  )
        83           Si  tau(  83) = (  30.7876073  25.6563394   5.1312679  )
        84           Si  tau(  84) = (  30.7876073  25.6563394  15.3938036  )
        85           Si  tau(  85) = (  30.7876073  35.9188751  25.6563394  )
        86           Si  tau(  86) = (  30.7876073  35.9188751  35.9188751  )
        87           Si  tau(  87) = (  30.7876073  35.9188751   5.1312679  )
        88           Si  tau(  88) = (  30.7876073  35.9188751  15.3938036  )
        89           Si  tau(  89) = (  30.7876073   5.1312679  25.6563394  )
        90           Si  tau(  90) = (  30.7876073   5.1312679  35.9188751  )
        91           Si  tau(  91) = (  30.7876073   5.1312679   5.1312679  )
        92           Si  tau(  92) = (  30.7876073   5.1312679  15.3938036  )
        93           Si  tau(  93) = (  30.7876073  15.3938036  25.6563394  )
        94           Si  tau(  94) = (  30.7876073  15.3938036  35.9188751  )
        95           Si  tau(  95) = (  30.7876073  15.3938036   5.1312679  )
        96           Si  tau(  96) = (  30.7876073  15.3938036  15.3938036  )
        97           Si  tau(  97) = (   0.0000000  25.6563394  25.6563394  )
        98           Si  tau(  98) = (   0.0000000  25.6563394  35.9188751  )
        99           Si  tau(  99) = (   0.0000000  25.6563394   5.1312679  )
       100           Si  tau( 100) = (   0.0000000  25.6563394  15.3938036  )
       101           Si  tau( 101) = (   0.0000000  35.9188751  25.6563394  )
       102           Si  tau( 102) = (   0.0000000  35.9188751  35.9188751  )
       103           Si  tau( 103) = (   0.0000000  35.9188751   5.1312679  )
       104           Si  tau( 104) = (   0.0000000  35.9188751  15.3938036  )
       105           Si  tau( 105) = (   0.0000000   5.1312679  25.6563394  )
       106           Si  tau( 106) = (   0.0000000   5.1312679  35.9188751  )
       107           Si  tau( 107) = (   0.0000000   5.1312679   5.1312679  )
       108           Si  tau( 108) = (   0.0000000   5.1312679  15.3938036  )
       109           Si  tau( 109) = (   0.0000000  15.3938036  25.6563394  )
       110           Si  tau( 110) = (   0.0000000  15.3938036  35.9188751  )
       111           Si  tau( 111) = (   0.0000000  15.3938036   5.1312679  )
       112           Si  tau( 112) = (   0.0000000  15.3938036  15.3938036  )
       113           Si  tau( 113) = (  10.2625357  25.6563394  25.6563394  )
       114           Si  tau( 114) = (  10.2625357  25.6563394  35.9188751  )
       115           Si  tau( 115) = (  10.2625357  25.6563394   5.1312679  )
       116           Si  tau( 116) = (  10.2625357  25.6563394  15.3938036  )
       117           Si  tau( 117) = (  10.2625357  35.9188751  25.6563394  )
       118           Si  tau( 118) = (  10.2625357  35.9188751  35.9188751  )
       119           Si  tau( 119) = (  10.2625357  35.9188751   5.1312679  )
       120           Si  tau( 120) = (  10.2625357  35.9188751  15.3938036  )
       121           Si  tau( 121) = (  10.2625357   5.1312679  25.6563394  )
       122           Si  tau( 122) = (  10.2625357   5.1312679  35.9188751  )
       123           Si  tau( 123) = (  10.2625357   5.1312679   5.1312679  )
       124           Si  tau( 124) = (  10.2625357   5.1312679  15.3938036  )
       125           Si  tau( 125) = (  10.2625357  15.3938036  25.6563394  )
       126           Si  tau( 126) = (  10.2625357  15.3938036  35.9188751  )
       127           Si  tau( 127) = (  10.2625357  15.3938036   5.1312679  )
       128           Si  tau( 128) = (  10.2625357  15.3938036  15.3938036  )
       129           Si  tau( 129) = (  25.6563394  20.5250715  25.6563394  )
       130           Si  tau( 130) = (  25.6563394  20.5250715  35.9188751  )
       131           Si  tau( 131) = (  25.6563394  20.5250715   5.1312679  )
       132           Si  tau( 132) = (  25.6563394  20.5250715  15.3938036  )
       133           Si  tau( 133) = (  25.6563394  30.7876073  25.6563394  )
       134           Si  tau( 134) = (  25.6563394  30.7876073  35.9188751  )
       135           Si  tau( 135) = (  25.6563394  30.7876073   5.1312679  )
       136           Si  tau( 136) = (  25.6563394  30.7876073  15.3938036  )
       137           Si  tau( 137) = (  25.6563394   0.0000000  25.6563394  )
       138           Si  tau( 138) = (  25.6563394   0.0000000  35.9188751  )
       139           Si  tau( 139) = (  25.6563394   0.0000000   5.1312679  )
       140           Si  tau( 140) = (  25.6563394   0.0000000  15.3938036  )
       141           Si  tau( 141) = (  25.6563394  10.2625357  25.6563394  )
       142           Si  tau( 142) = (  25.6563394  10.2625357  35.9188751  )
       143           Si  tau( 143) = (  25.6563394  10.2625357   5.1312679  )
       144           Si  tau( 144) = (  25.6563394  10.2625357  15.3938036  )
       145           Si  tau( 145) = (  35.9188751  20.5250715  25.6563394  )
       146           Si  tau( 146) = (  35.9188751  20.5250715  35.9188751  )
       147           Si  tau( 147) = (  35.9188751  20.5250715   5.1312679  )
       148           Si  tau( 148) = (  35.9188751  20.5250715  15.3938036  )
       149           Si  tau( 149) = (  35.9188751  30.7876073  25.6563394  )
       150           Si  tau( 150) = (  35.9188751  30.7876073  35.9188751  )
       151           Si  tau( 151) = (  35.9188751  30.7876073   5.1312679  )
       152           Si  tau( 152) = (  35.9188751  30.7876073  15.3938036  )
       153           Si  tau( 153) = (  35.9188751   0.0000000  25.6563394  )
       154           Si  tau( 154) = (  35.9188751   0.0000000  35.9188751  )
       155           Si  tau( 155) = (  35.9188751   0.0000000   5.1312679  )
       156           Si  tau( 156) = (  35.9188751   0.0000000  15.3938036  )
       157           Si  tau( 157) = (  35.9188751  10.2625357  25.6563394  )
       158           Si  tau( 158) = (  35.9188751  10.2625357  35.9188751  )
       159           Si  tau( 159) = (  35.9188751  10.2625357   5.1312679  )
       160           Si  tau( 160) = (  35.9188751  10.2625357  15.3938036  )
       161           Si  tau( 161) = (   5.1312679  20.5250715  25.6563394  )
       162           Si  tau( 162) = (   5.1312679  20.5250715  35.9188751  )
       163           Si  tau( 163) = (   5.1312679  20.5250715   5.1312679  )
       164           Si  tau( 164) = (   5.1312679  20.5250715  15.3938036  )
       165           Si  tau( 165) = (   5.1312679  30.7876073  25.6563394  )
       166           Si  tau( 166) = (   5.1312679  30.7876073  35.9188751  )
       167           Si  tau( 167) = (   5.1312679  30.7876073   5.1312679  )
       168           Si  tau( 168) = (   5.1312679  30.7876073  15.3938036  )
       169           Si  tau( 169) = (   5.1312679   0.0000000  25.6563394  )
       170           Si  tau( 170) = (   5.1312679   0.0000000  35.9188751  )
       171           Si  tau( 171) = (   5.1312679   0.0000000   5.1312679  )
       172           Si  tau( 172) = (   5.1312679   0.0000000  15.3938036  )
       173           Si  tau( 173) = (   5.1312679  10.2625357  25.6563394  )
       174           Si  tau( 174) = (   5.1312679  10.2625357  35.9188751  )
       175           Si  tau( 175) = (   5.1312679  10.2625357   5.1312679  )
       176           Si  tau( 176) = (   5.1312679  10.2625357  15.3938036  )
       177           Si  tau( 177) = (  15.3938036  20.5250715  25.6563394  )
       178           Si  tau( 178) = (  15.3938036  20.5250715  35.9188751  )
       179           Si  tau( 179) = (  15.3938036  20.5250715   5.1312679  )
       180           Si  tau( 180) = (  15.3938036  20.5250715  15.3938036  )
       181           Si  tau( 181) = (  15.3938036  30.7876073  25.6563394  )
       182           Si  tau( 182) = (  15.3938036  30.7876073  35.9188751  )
       183           Si  tau( 183) = (  15.3938036  30.7876073   5.1312679  )
       184           Si  tau( 184) = (  15.3938036  30.7876073  15.3938036  )
       185           Si  tau( 185) = (  15.3938036   0.0000000  25.6563394  )
       186           Si  tau( 186) = (  15.3938036   0.0000000  35.9188751  )
       187           Si  tau( 187) = (  15.3938036   0.0000000   5.1312679  )
       188           Si  tau( 188) = (  15.3938036   0.0000000  15.3938036  )
       189           Si  tau( 189) = (  15.3938036  10.2625357  25.6563394  )
       190           Si  tau( 190) = (  15.3938036  10.2625357  35.9188751  )
       191           Si  tau( 191) = (  15.3938036  10.2625357   5.1312679  )
       192           Si  tau( 192) = (  15.3938036  10.2625357  15.3938036  )
       193           Si  tau( 193) = (  25.6563394  25.6563394  20.5250715  )
       194           Si  tau( 194) = (  25.6563394  25.6563394  30.7876073  )
       195           Si  tau( 195) = (  25.6563394  25.6563394   0.0000000  )
       196           Si  tau( 196) = (  25.6563394  25.6563394  10.2625357  )
       197           Si  tau( 197) = (  25.6563394  35.9188751  20.5250715  )
       198           Si  tau( 198) = (  25.6563394  35.9188751  30.7876073  )
       199           Si  tau( 199) = (  25.6563394  35.9188751   0.0000000  )
       200           Si  tau( 200) = (  25.6563394  35.9188751  10.2625357  )
       201           Si  tau( 201) = (  25.6563394   5.1312679  20.5250715  )
       202           Si  tau( 202) = (  25.6563394   5.1312679  30.7876073  )
       203           Si  tau( 203) = (  25.6563394   5.1312679   0.0000000  )
       204           Si  tau( 204) = (  25.6563394   5.1312679  10.2625357  )
       205           Si  tau( 205) = (  25.6563394  15.3938036  20.5250715  )
       206           Si  tau( 206) = (  25.6563394  15.3938036  30.7876073  )
       207           Si  tau( 207) = (  25.6563394  15.3938036   0.0000000  )
       208           Si  tau( 208) = (  25.6563394  15.3938036  10.2625357  )
       209           Si  tau( 209) = (  35.9188751  25.6563394  20.5250715  )
       210           Si  tau( 210) = (  35.9188751  25.6563394  30.7876073  )
       211           Si  tau( 211) = (  35.9188751  25.6563394   0.0000000  )
       212           Si  tau( 212) = (  35.9188751  25.6563394  10.2625357  )
       213           Si  tau( 213) = (  35.9188751  35.9188751  20.5250715  )
       214           Si  tau( 214) = (  35.9188751  35.9188751  30.7876073  )
       215           Si  tau( 215) = (  35.9188751  35.9188751   0.0000000  )
       216           Si  tau( 216) = (  35.9188751  35.9188751  10.2625357  )
       217           Si  tau( 217) = (  35.9188751   5.1312679  20.5250715  )
       218           Si  tau( 218) = (  35.9188751   5.1312679  30.7876073  )
       219           Si  tau( 219) = (  35.9188751   5.1312679   0.0000000  )
       220           Si  tau( 220) = (  35.9188751   5.1312679  10.2625357  )
       221           Si  tau( 221) = (  35.9188751  15.3938036  20.5250715  )
       222           Si  tau( 222) = (  35.9188751  15.3938036  30.7876073  )
       223           Si  tau( 223) = (  35.9188751  15.3938036   0.0000000  )
       224           Si  tau( 224) = (  35.9188751  15.3938036  10.2625357  )
       225           Si  tau( 225) = (   5.1312679  25.6563394  20.5250715  )
       226           Si  tau( 226) = (   5.1312679  25.6563394  30.7876073  )
       227           Si  tau( 227) = (   5.1312679  25.6563394   0.0000000  )
       228           Si  tau( 228) = (   5.1312679  25.6563394  10.2625357  )
       229           Si  tau( 229) = (   5.1312679  35.9188751  20.5250715  )
       230           Si  tau( 230) = (   5.1312679  35.9188751  30.7876073  )
       231           Si  tau( 231) = (   5.1312679  35.9188751   0.0000000  )
       232           Si  tau( 232) = (   5.1312679  35.9188751  10.2625357  )
       233           Si  tau( 233) = (   5.1312679   5.1312679  20.5250715  )
       234           Si  tau( 234) = (   5.1312679   5.1312679  30.7876073  )
       235           Si  tau( 235) = (   5.1312679   5.1312679   0.0000000  )
       236           Si  tau( 236) = (   5.1312679   5.1312679  10.2625357  )
       237           Si  tau( 237) = (   5.1312679  15.3938036  20.5250715  )
       238           Si  tau( 238) = (   5.1312679  15.3938036  30.7876073  )
       239           Si  tau( 239) = (   5.1312679  15.3938036   0.0000000  )
       240           Si  tau( 240) = (   5.1312679  15.3938036  10.2625357  )
       241           Si  tau( 241) = (  15.3938036  25.6563394  20.5250715  )
       242           Si  tau( 242) = (  15.3938036  25.6563394  30.7876073  )
       243           Si  tau( 243) = (  15.3938036  25.6563394   0.0000000  )
       244           Si  tau( 244) = (  15.3938036  25.6563394  10.2625357  )
       245           Si  tau( 245) = (  15.3938036  35.9188751  20.5250715  )
       246           Si  tau( 246) = (  15.3938036  35.9188751  30.7876073  )
       247           Si  tau( 247) = (  15.3938036  35.9188751   0.0000000  )
       248           Si  tau( 248) = (  15.3938036  35.9188751  10.2625357  )
       249           Si  tau( 249) = (  15.3938036   5.1312679  20.5250715  )
       250           Si  tau( 250) = (  15.3938036   5.1312679  30.7876073  )
       251           Si  tau( 251) = (  15.3938036   5.1312679   0.0000000  )
       252           Si  tau( 252) = (  15.3938036   5.1312679  10.2625357  )
       253           Si  tau( 253) = (  15.3938036  15.3938036  20.5250715  )
       254           Si  tau( 254) = (  15.3938036  15.3938036  30.7876073  )
       255           Si  tau( 255) = (  15.3938036  15.3938036   0.0000000  )
       256           Si  tau( 256) = (  15.3938036  15.3938036  10.2625357  )
       257           Si  tau( 257) = (  28.2219733  28.2219733  23.0907054  )
       258           Si  tau( 258) = (  28.2219733  28.2219733  33.3532412  )
       259           Si  tau( 259) = (  28.2219733  28.2219733   2.5656339  )
       260           Si  tau( 260) = (  28.2219733  28.2219733  12.8281697  )
       261           Si  tau( 261) = (  28.2219733  38.4845091  23.0907054  )
       262           Si  tau( 262) = (  28.2219733  38.4845091  33.3532412  )
       263           Si  tau( 263) = (  28.2219733  38.4845091   2.5656339  )
       264           Si  tau( 264) = (  28.2219733  38.4845091  12.8281697  )
       265           Si  tau( 265) = (  28.2219733   7.6969018  23.0907054  )
       266           Si  tau( 266) = (  28.2219733   7.6969018  33.3532412  )
       267           Si  tau( 267) = (  28.2219733   7.6969018   2.5656339  )
       268           Si  tau( 268) = (  28.2219733   7.6969018  12.8281697  )
       269           Si  tau( 269) = (  28.2219733  17.9594376  23.0907054  )
       270           Si  tau( 270) = (  28.2219733  17.9594376  33.3532412  )
       271           Si  tau( 271) = (  28.2219733  17.9594376   2.5656339  )
       272           Si  tau( 272) = (  28.2219733  17.9594376  12.8281697  )
       273           Si  tau( 273) = (  38.4845091  28.2219733  23.0907054  )
       274           Si  tau( 274) = (  38.4845091  28.2219733  33.3532412  )
       275           Si  tau( 275) = (  38.4845091  28.2219733   2.5656339  )
       276           Si  tau( 276) = (  38.4845091  28.2219733  12.8281697  )
       277           Si  tau( 277) = (  38.4845091  38.4845091  23.0907054  )
       278           Si  tau( 278) = (  38.4845091  38.4845091  33.3532412  )
       279           Si  tau( 279) = (  38.4845091  38.4845091   2.5656339  )
       280           Si  tau( 280) = (  38.4845091  38.4845091  12.8281697  )
       281           Si  tau( 281) = (  38.4845091   7.6969018  23.0907054  )
       282           Si  tau( 282) = (  38.4845091   7.6969018  33.3532412  )
       283           Si  tau( 283) = (  38.4845091   7.6969018   2.5656339  )
       284           Si  tau( 284) = (  38.4845091   7.6969018  12.8281697  )
       285           Si  tau( 285) = (  38.4845091  17.9594376  23.0907054  )
       286           Si  tau( 286) = (  38.4845091  17.9594376  33.3532412  )
       287           Si  tau( 287) = (  38.4845091  17.9594376   2.5656339  )
       288           Si  tau( 288) = (  38.4845091  17.9594376  12.8281697  )
       289           Si  tau( 289) = (   7.6969018  28.2219733  23.0907054  )
       290           Si  tau( 290) = (   7.6969018  28.2219733  33.3532412  )
       291           Si  tau( 291) = (   7.6969018  28.2219733   2.5656339  )
       292           Si  tau( 292) = (   7.6969018  28.2219733  12.8281697  )
       293           Si  tau( 293) = (   7.6969018  38.4845091  23.0907054  )
       294           Si  tau( 294) = (   7.6969018  38.4845091  33.3532412  )
       295           Si  tau( 295) = (   7.6969018  38.4845091   2.5656339  )
       296           Si  tau( 296) = (   7.6969018  38.4845091  12.8281697  )
       297           Si  tau( 297) = (   7.6969018   7.6969018  23.0907054  )
       298           Si  tau( 298) = (   7.6969018   7.6969018  33.3532412  )
       299           Si  tau( 299) = (   7.6969018   7.6969018   2.5656339  )
       300           Si  tau( 300) = (   7.6969018   7.6969018  12.8281697  )
       301           Si  tau( 301) = (   7.6969018  17.9594376  23.0907054  )
       302           Si  tau( 302) = (   7.6969018  17.9594376  33.3532412  )
       303           Si  tau( 303) = (   7.6969018  17.9594376   2.5656339  )
       304           Si  tau( 304) = (   7.6969018  17.9594376  12.8281697  )
       305           Si  tau( 305) = (  17.9594376  28.2219733  23.0907054  )
       306           Si  tau( 306) = (  17.9594376  28.2219733  33.3532412  )
       307           Si  tau( 307) = (  17.9594376  28.2219733   2.5656339  )
       308           Si  tau( 308) = (  17.9594376  28.2219733  12.8281697  )
       309           Si  tau( 309) = (  17.9594376  38.4845091  23.0907054  )
       310           Si  tau( 310) = (  17.9594376  38.4845091  33.3532412  )
       311           Si  tau( 311) = (  17.9594376  38.4845091   2.5656339  )
       312           Si  tau( 312) = (  17.9594376  38.4845091  12.8281697  )
       313           Si  tau( 313) = (  17.9594376   7.6969018  23.0907054  )
       314           Si  tau( 314) = (  17.9594376   7.6969018  33.3532412  )
       315           Si  tau( 315) = (  17.9594376   7.6969018   2.5656339  )
       316           Si  tau( 316) = (  17.9594376   7.6969018  12.8281697  )
       317           Si  tau( 317) = (  17.9594376  17.9594376  23.0907054  )
       318           Si  tau( 318) = (  17.9594376  17.9594376  33.3532412  )
       319           Si  tau( 319) = (  17.9594376  17.9594376   2.5656339  )
       320           Si  tau( 320) = (  17.9594376  17.9594376  12.8281697  )
       321           Si  tau( 321) = (  28.2219733  23.0907054  28.2219733  )
       322           Si  tau( 322) = (  28.2219733  23.0907054  38.4845091  )
       323           Si  tau( 323) = (  28.2219733  23.0907054   7.6969018  )
       324           Si  tau( 324) = (  28.2219733  23.0907054  17.9594376  )
       325           Si  tau( 325) = (  28.2219733  33.3532412  28.2219733  )
       326           Si  tau( 326) = (  28.2219733  33.3532412  38.4845091  )
       327           Si  tau( 327) = (  28.2219733  33.3532412   7.6969018  )
       328           Si  tau( 328) = (  28.2219733  33.3532412  17.9594376  )
       329           Si  tau( 329) = (  28.2219733   2.5656339  28.2219733  )
       330           Si  tau( 330) = (  28.2219733   2.5656339  38.4845091  )
       331           Si  tau( 331) = (  28.2219733   2.5656339   7.6969018  )
       332           Si  tau( 332) = (  28.2219733   2.5656339  17.9594376  )
       333           Si  tau( 333) = (  28.2219733  12.8281697  28.2219733  )
       334           Si  tau( 334) = (  28.2219733  12.8281697  38.4845091  )
       335           Si  tau( 335) = (  28.2219733  12.8281697   7.6969018  )
       336           Si  tau( 336) = (  28.2219733  12.8281697  17.9594376  )
       337           Si  tau( 337) = (  38.4845091  23.0907054  28.2219733  )
       338           Si  tau( 338) = (  38.4845091  23.0907054  38.4845091  )
       339           Si  tau( 339) = (  38.4845091  23.0907054   7.6969018  )
       340           Si  tau( 340) = (  38.4845091  23.0907054  17.9594376  )
       341           Si  tau( 341) = (  38.4845091  33.3532412  28.2219733  )
       342           Si  tau( 342) = (  38.4845091  33.3532412  38.4845091  )
       343           Si  tau( 343) = (  38.4845091  33.3532412   7.6969018  )
       344           Si  tau( 344) = (  38.4845091  33.3532412  17.9594376  )
       345           Si  tau( 345) = (  38.4845091   2.5656339  28.2219733  )
       346           Si  tau( 346) = (  38.4845091   2.5656339  38.4845091  )
       347           Si  tau( 347) = (  38.4845091   2.5656339   7.6969018  )
       348           Si  tau( 348) = (  38.4845091   2.5656339  17.9594376  )
       349           Si  tau( 349) = (  38.4845091  12.8281697  28.2219733  )
       350           Si  tau( 350) = (  38.4845091  12.8281697  38.4845091  )
       351           Si  tau( 351) = (  38.4845091  12.8281697   7.6969018  )
       352           Si  tau( 352) = (  38.4845091  12.8281697  17.9594376  )
       353           Si  tau( 353) = (   7.6969018  23.0907054  28.2219733  )
       354           Si  tau( 354) = (   7.6969018  23.0907054  38.4845091  )
       355           Si  tau( 355) = (   7.6969018  23.0907054   7.6969018  )
       356           Si  tau( 356) = (   7.6969018  23.0907054  17.9594376  )
       357           Si  tau( 357) = (   7.6969018  33.3532412  28.2219733  )
       358           Si  tau( 358) = (   7.6969018  33.3532412  38.4845091  )
       359           Si  tau( 359) = (   7.6969018  33.3532412   7.6969018  )
       360           Si  tau( 360) = (   7.6969018  33.3532412  17.9594376  )
       361           Si  tau( 361) = (   7.6969018   2.5656339  28.2219733  )
       362           Si  tau( 362) = (   7.6969018   2.5656339  38.4845091  )
       363           Si  tau( 363) = (   7.6969018   2.5656339   7.6969018  )
       364           Si  tau( 364) = (   7.6969018   2.5656339  17.9594376  )
       365           Si  tau( 365) = (   7.6969018  12.8281697  28.2219733  )
       366           Si  tau( 366) = (   7.6969018  12.8281697  38.4845091  )
       367           Si  tau( 367) = (   7.6969018  12.8281697   7.6969018  )
       368           Si  tau( 368) = (   7.6969018  12.8281697  17.9594376  )
       369           Si  tau( 369) = (  17.9594376  23.0907054  28.2219733  )
       370           Si  tau( 370) = (  17.9594376  23.0907054  38.4845091  )
       371           Si  tau( 371) = (  17.9594376  23.0907054   7.6969018  )
       372           Si  tau( 372) = (  17.9594376  23.0907054  17.9594376  )
       373           Si  tau( 373) = (  17.9594376  33.3532412  28.2219733  )
       374           Si  tau( 374) = (  17.9594376  33.3532412  38.4845091  )
       375           Si  tau( 375) = (  17.9594376  33.3532412   7.6969018  )
       376           Si  tau( 376) = (  17.9594376  33.3532412  17.9594376  )
       377           Si  tau( 377) = (  17.9594376   2.5656339  28.2219733  )
       378           Si  tau( 378) = (  17.9594376   2.5656339  38.4845091  )
       379           Si  tau( 379) = (  17.9594376   2.5656339   7.6969018  )
       380           Si  tau( 380) = (  17.9594376   2.5656339  17.9594376  )
       381           Si  tau( 381) = (  17.9594376  12.8281697  28.2219733  )
       382           Si  tau( 382) = (  17.9594376  12.8281697  38.4845091  )
       383           Si  tau( 383) = (  17.9594376  12.8281697   7.6969018  )
       384           Si  tau( 384) = (  17.9594376  12.8281697  17.9594376  )
       385           Si  tau( 385) = (  23.0907054  28.2219733  28.2219733  )
       386           Si  tau( 386) = (  23.0907054  28.2219733  38.4845091  )
       387           Si  tau( 387) = (  23.0907054  28.2219733   7.6969018  )
       388           Si  tau( 388) = (  23.0907054  28.2219733  17.9594376  )
       389           Si  tau( 389) = (  23.0907054  38.4845091  28.2219733  )
       390           Si  tau( 390) = (  23.0907054  38.4845091  38.4845091  )
       391           Si  tau( 391) = (  23.0907054  38.4845091   7.6969018  )
       392           Si  tau( 392) = (  23.0907054  38.4845091  17.9594376  )
       393           Si  tau( 393) = (  23.0907054   7.6969018  28.2219733  )
       394           Si  tau( 394) = (  23.0907054   7.6969018  38.4845091  )
       395           Si  tau( 395) = (  23.0907054   7.6969018   7.6969018  )
       396           Si  tau( 396) = (  23.0907054   7.6969018  17.9594376  )
       397           Si  tau( 397) = (  23.0907054  17.9594376  28.2219733  )
       398           Si  tau( 398) = (  23.0907054  17.9594376  38.4845091  )
       399           Si  tau( 399) = (  23.0907054  17.9594376   7.6969018  )
       400           Si  tau( 400) = (  23.0907054  17.9594376  17.9594376  )
       401           Si  tau( 401) = (  33.3532412  28.2219733  28.2219733  )
       402           Si  tau( 402) = (  33.3532412  28.2219733  38.4845091  )
       403           Si  tau( 403) = (  33.3532412  28.2219733   7.6969018  )
       404           Si  tau( 404) = (  33.3532412  28.2219733  17.9594376  )
       405           Si  tau( 405) = (  33.3532412  38.4845091  28.2219733  )
       406           Si  tau( 406) = (  33.3532412  38.4845091  38.4845091  )
       407           Si  tau( 407) = (  33.3532412  38.4845091   7.6969018  )
       408           Si  tau( 408) = (  33.3532412  38.4845091  17.9594376  )
       409           Si  tau( 409) = (  33.3532412   7.6969018  28.2219733  )
       410           Si  tau( 410) = (  33.3532412   7.6969018  38.4845091  )
       411           Si  tau( 411) = (  33.3532412   7.6969018   7.6969018  )
       412           Si  tau( 412) = (  33.3532412   7.6969018  17.9594376  )
       413           Si  tau( 413) = (  33.3532412  17.9594376  28.2219733  )
       414           Si  tau( 414) = (  33.3532412  17.9594376  38.4845091  )
       415           Si  tau( 415) = (  33.3532412  17.9594376   7.6969018  )
       416           Si  tau( 416) = (  33.3532412  17.9594376  17.9594376  )
       417           Si  tau( 417) = (   2.5656339  28.2219733  28.2219733  )
       418           Si  tau( 418) = (   2.5656339  28.2219733  38.4845091  )
       419           Si  tau( 419) = (   2.5656339  28.2219733   7.6969018  )
       420           Si  tau( 420) = (   2.5656339  28.2219733  17.9594376  )
       421           Si  tau( 421) = (   2.5656339  38.4845091  28.2219733  )
       422           Si  tau( 422) = (   2.5656339  38.4845091  38.4845091  )
       423           Si  tau( 423) = (   2.5656339  38.4845091   7.6969018  )
       424           Si  tau( 424) = (   2.5656339  38.4845091  17.9594376  )
       425           Si  tau( 425) = (   2.5656339   7.6969018  28.2219733  )
       426           Si  tau( 426) = (   2.5656339   7.6969018  38.4845091  )
       427           Si  tau( 427) = (   2.5656339   7.6969018   7.6969018  )
       428           Si  tau( 428) = (   2.5656339   7.6969018  17.9594376  )
       429           Si  tau( 429) = (   2.5656339  17.9594376  28.2219733  )
       430           Si  tau( 430) = (   2.5656339  17.9594376  38.4845091  )
       431           Si  tau( 431) = (   2.5656339  17.9594376   7.6969018  )
       432           Si  tau( 432) = (   2.5656339  17.9594376  17.9594376  )
       433           Si  tau( 433) = (  12.8281697  28.2219733  28.2219733  )
       434           Si  tau( 434) = (  12.8281697  28.2219733  38.4845091  )
       435           Si  tau( 435) = (  12.8281697  28.2219733   7.6969018  )
       436           Si  tau( 436) = (  12.8281697  28.2219733  17.9594376  )
       437           Si  tau( 437) = (  12.8281697  38.4845091  28.2219733  )
       438           Si  tau( 438) = (  12.8281697  38.4845091  38.4845091  )
       439           Si  tau( 439) = (  12.8281697  38.4845091   7.6969018  )
       440           Si  tau( 440) = (  12.8281697  38.4845091  17.9594376  )
       441           Si  tau( 441) = (  12.8281697   7.6969018  28.2219733  )
       442           Si  tau( 442) = (  12.8281697   7.6969018  38.4845091  )
       443           Si  tau( 443) = (  12.8281697   7.6969018   7.6969018  )
       444           Si  tau( 444) = (  12.8281697   7.6969018  17.9594376  )
       445           Si  tau( 445) = (  12.8281697  17.9594376  28.2219733  )
       446           Si  tau( 446) = (  12.8281697  17.9594376  38.4845091  )
       447           Si  tau( 447) = (  12.8281697  17.9594376   7.6969018  )
       448           Si  tau( 448) = (  12.8281697  17.9594376  17.9594376  )
       449           Si  tau( 449) = (  23.0907054  23.0907054  23.0907054  )
       450           Si  tau( 450) = (  23.0907054  23.0907054  33.3532412  )
       451           Si  tau( 451) = (  23.0907054  23.0907054   2.5656339  )
       452           Si  tau( 452) = (  23.0907054  23.0907054  12.8281697  )
       453           Si  tau( 453) = (  23.0907054  33.3532412  23.0907054  )
       454           Si  tau( 454) = (  23.0907054  33.3532412  33.3532412  )
       455           Si  tau( 455) = (  23.0907054  33.3532412   2.5656339  )
       456           Si  tau( 456) = (  23.0907054  33.3532412  12.8281697  )
       457           Si  tau( 457) = (  23.0907054   2.5656339  23.0907054  )
       458           Si  tau( 458) = (  23.0907054   2.5656339  33.3532412  )
       459           Si  tau( 459) = (  23.0907054   2.5656339   2.5656339  )
       460           Si  tau( 460) = (  23.0907054   2.5656339  12.8281697  )
       461           Si  tau( 461) = (  23.0907054  12.8281697  23.0907054  )
       462           Si  tau( 462) = (  23.0907054  12.8281697  33.3532412  )
       463           Si  tau( 463) = (  23.0907054  12.8281697   2.5656339  )
       464           Si  tau( 464) = (  23.0907054  12.8281697  12.8281697  )
       465           Si  tau( 465) = (  33.3532412  23.0907054  23.0907054  )
       466           Si  tau( 466) = (  33.3532412  23.0907054  33.3532412  )
       467           Si  tau( 467) = (  33.3532412  23.0907054   2.5656339  )
       468           Si  tau( 468) = (  33.3532412  23.0907054  12.8281697  )
       469           Si  tau( 469) = (  33.3532412  33.3532412  23.0907054  )
       470           Si  tau( 470) = (  33.3532412  33.3532412  33.3532412  )
       471           Si  tau( 471) = (  33.3532412  33.3532412   2.5656339  )
       472           Si  tau( 472) = (  33.3532412  33.3532412  12.8281697  )
       473           Si  tau( 473) = (  33.3532412   2.5656339  23.0907054  )
       474           Si  tau( 474) = (  33.3532412   2.5656339  33.3532412  )
       475           Si  tau( 475) = (  33.3532412   2.5656339   2.5656339  )
       476           Si  tau( 476) = (  33.3532412   2.5656339  12.8281697  )
       477           Si  tau( 477) = (  33.3532412  12.8281697  23.0907054  )
       478           Si  tau( 478) = (  33.3532412  12.8281697  33.3532412  )
       479           Si  tau( 479) = (  33.3532412  12.8281697   2.5656339  )
       480           Si  tau( 480) = (  33.3532412  12.8281697  12.8281697  )
       481           Si  tau( 481) = (   2.5656339  23.0907054  23.0907054  )
       482           Si  tau( 482) = (   2.5656339  23.0907054  33.3532412  )
       483           Si  tau( 483) = (   2.5656339  23.0907054   2.5656339  )
       484           Si  tau( 484) = (   2.5656339  23.0907054  12.8281697  )
       485           Si  tau( 485) = (   2.5656339  33.3532412  23.0907054  )
       486           Si  tau( 486) = (   2.5656339  33.3532412  33.3532412  )
       487           Si  tau( 487) = (   2.5656339  33.3532412   2.5656339  )
       488           Si  tau( 488) = (   2.5656339  33.3532412  12.8281697  )
       489           Si  tau( 489) = (   2.5656339   2.5656339  23.0907054  )
       490           Si  tau( 490) = (   2.5656339   2.5656339  33.3532412  )
       491           Si  tau( 491) = (   2.5656339   2.5656339   2.5656339  )
       492           Si  tau( 492) = (   2.5656339   2.5656339  12.8281697  )
       493           Si  tau( 493) = (   2.5656339  12.8281697  23.0907054  )
       494           Si  tau( 494) = (   2.5656339  12.8281697  33.3532412  )
       495           Si  tau( 495) = (   2.5656339  12.8281697   2.5656339  )
       496           Si  tau( 496) = (   2.5656339  12.8281697  12.8281697  )
       497           Si  tau( 497) = (  12.8281697  23.0907054  23.0907054  )
       498           Si  tau( 498) = (  12.8281697  23.0907054  33.3532412  )
       499           Si  tau( 499) = (  12.8281697  23.0907054   2.5656339  )
       500           Si  tau( 500) = (  12.8281697  23.0907054  12.8281697  )
       501           Si  tau( 501) = (  12.8281697  33.3532412  23.0907054  )
       502           Si  tau( 502) = (  12.8281697  33.3532412  33.3532412  )
       503           Si  tau( 503) = (  12.8281697  33.3532412   2.5656339  )
       504           Si  tau( 504) = (  12.8281697  33.3532412  12.8281697  )
       505           Si  tau( 505) = (  12.8281697   2.5656339  23.0907054  )
       506           Si  tau( 506) = (  12.8281697   2.5656339  33.3532412  )
       507           Si  tau( 507) = (  12.8281697   2.5656339   2.5656339  )
       508           Si  tau( 508) = (  12.8281697   2.5656339  12.8281697  )
       509           Si  tau( 509) = (  12.8281697  12.8281697  23.0907054  )
       510           Si  tau( 510) = (  12.8281697  12.8281697  33.3532412  )
       511           Si  tau( 511) = (  12.8281697  12.8281697   2.5656339  )
       512           Si  tau( 512) = (  12.8281697  12.8281697  12.8281697  )

     number of k points=     1  Gaussian smearing, width (Ry)=  0.0010
                       cart. coord. in units 2pi/alat
        k(    1) = (   0.0000000   0.0000000   0.0000000), wk =   2.0000000

     Dense  grid:  8583411 G-vectors     FFT dimensions: ( 324, 324, 324)

     Smooth grid:  1182051 G-vectors     FFT dimensions: ( 180, 180, 180)

     Estimated max dynamical RAM per process >       1.19 GB

     Estimated total dynamical RAM >     118.72 GB

     Initial potential from superposition of free atoms

     total cpu time spent up to now is       15.7 secs

     Self-consistent Calculation

     iteration #  1     ecut=    40.00 Ry     beta= 0.70

     Threshold (ethr) on eigenvalues was too large:
     Diagonalizing with lowered threshold


     total cpu time spent up to now is       36.0 secs

     total energy              =   -5126.82650449 Ry
     estimated scf accuracy    <      14.53670836 Ry
 
     Band energy sum           =      64.99725985 Ry

     iteration #  2     ecut=    40.00 Ry     beta= 0.70

     total cpu time spent up to now is       49.0 secs

     total energy              =   -5127.96197434 Ry
     estimated scf accuracy    <       0.54906191 Ry
 
     Band energy sum           =     124.50822861 Ry

     iteration #  3     ecut=    40.00 Ry     beta= 0.70

     total cpu time spent up to now is       78.2 secs

     total energy              =   -5128.12957151 Ry
     estimated scf accuracy    <       0.03062168 Ry
 
     Band energy sum           =     130.73320097 Ry

     iteration #  4     ecut=    40.00 Ry     beta= 0.70

     total cpu time spent up to now is      105.0 secs

     total energy              =   -5128.09300960 Ry
     estimated scf accuracy    <       0.54314386 Ry
 
     Band energy sum           =     126.98717597 Ry

     iteration #  5     ecut=    40.00 Ry     beta= 0.70

     total cpu time spent up to now is      123.8 secs

     total energy              =   -5128.14635277 Ry
     estimated scf accuracy    <       0.02682364 Ry
 
     Band energy sum           =     127.50263847 Ry

     iteration #  6     ecut=    40.00 Ry     beta= 0.70

     total cpu time spent up to now is      135.5 secs

     total energy              =   -5128.14914615 Ry
     estimated scf accuracy    <       0.00376460 Ry
 
     Band energy sum           =     127.79139800 Ry

     iteration #  7     ecut=    40.00 Ry     beta= 0.70

     total cpu time spent up to now is      146.9 secs

     total energy              =   -5128.14950320 Ry
     estimated scf accuracy    <       0.00083994 Ry
 
     Band energy sum           =     128.02571268 Ry

     iteration #  8     ecut=    40.00 Ry     beta= 0.70

     total cpu time spent up to now is      158.6 secs

     total energy              =   -5128.14958323 Ry
     estimated scf accuracy    <       0.00013026 Ry
 
     Band energy sum           =     128.20587267 Ry

     iteration #  9     ecut=    40.00 Ry     beta= 0.70

     total cpu time spent up to now is      171.3 secs

     total energy              =   -5128.14960460 Ry
     estimated scf accuracy    <       0.00001916 Ry
 
     Band energy sum           =     128.30364026 Ry

     iteration # 10     ecut=    40.00 Ry     beta= 0.70

     total cpu time spent up to now is      184.0 secs

     total energy              =   -5128.14960882 Ry
     estimated scf accuracy    <       0.00000361 Ry
 
     Band energy sum           =     128.33701866 Ry

     iteration # 11     ecut=    40.00 Ry     beta= 0.70

     total cpu time spent up to now is      196.7 secs

     total energy              =   -5128.14960946 Ry
     estimated scf accuracy    <       0.00000224 Ry
 
     Band energy sum           =     128.31942776 Ry

     iteration # 12     ecut=    40.00 Ry     beta= 0.70

     total cpu time spent up to now is      208.1 secs

     total energy              =   -5128.14960970 Ry
     estimated scf accuracy    <       0.00000138 Ry
 
     Band energy sum           =     128.32631155 Ry

     iteration # 13     ecut=    40.00 Ry     beta= 0.70

     total cpu time spent up to now is      218.6 secs

     total energy              =   -5128.14960986 Ry
     estimated scf accuracy    <       0.00000033 Ry
 
     Band energy sum           =     128.32672835 Ry

     iteration # 14     ecut=    40.00 Ry     beta= 0.70

     total cpu time spent up to now is      229.3 secs

     total energy              =   -5128.14960990 Ry
     estimated scf accuracy    <       0.00000006 Ry
 
     Band energy sum           =     128.32719405 Ry

     iteration # 15     ecut=    40.00 Ry     beta= 0.70

     total cpu time spent up to now is      239.9 secs

     total energy              =   -5128.14960991 Ry
     estimated scf accuracy    <       0.00000007 Ry
 
     Band energy sum           =     128.32666332 Ry

     iteration # 16     ecut=    40.00 Ry     beta= 0.70

     total cpu time spent up to now is      247.9 secs

     total energy              =   -5128.14960992 Ry
     estimated scf accuracy    <       0.00000001 Ry
 
     Band energy sum           =     128.32671226 Ry

     iteration # 17     ecut=    40.00 Ry     beta= 0.70

     total cpu time spent up to now is      255.1 secs

     total energy              =   -5128.14960992 Ry
     estimated scf accuracy    <          9.2E-10 Ry
 
     Band energy sum           =     128.32674057 Ry

     iteration # 18     ecut=    40.00 Ry     beta= 0.70

     total cpu time spent up to now is      262.1 secs

     total energy              =   -5128.14960992 Ry
     estimated scf accuracy    <          3.6E-10 Ry
 
     Band energy sum           =     128.32671060 Ry

     iteration # 19     ecut=    40.00 Ry     beta= 0.70

     total cpu time spent up to now is      269.1 secs

     total energy              =   -5128.14960992 Ry
     estimated scf accuracy    <          2.9E-10 Ry
 
     Band energy sum           =     128.32668038 Ry

     iteration # 20     ecut=    40.00 Ry     beta= 0.70

     total cpu time spent up to now is      275.4 secs

     End of self-consistent calculation

          k = 0.0000 0.0000 0.0000 (147954 PWs)   bands (ev):

   -18.3118 -18.3118 -18.3118 -18.2816 -18.2816  -5.9524  -5.7031  -5.6750
    -5.6750  -5.6750  -5.6749  -5.6749  -5.4554  -5.4078  -5.4078  -5.4078
    -5.4075  -5.4075  -5.4075  -5.4075  -5.4075  -5.4075  -5.4075  -5.4075
    -5.1772  -5.1482  -5.1482  -5.1482  -5.1480  -5.1479  -5.1479  -5.1479
    -4.8936  -4.8663  -4.8663  -4.8663  -4.8661  -4.8661  -4.7049  -4.6194
    -4.6194  -4.6194  -4.6184  -4.6184  -4.6184  -4.6184  -4.6184  -4.6184
    -4.6184  -4.6184  -4.6183  -4.6183  -4.6183  -4.6183  -4.6183  -4.6183
    -4.6183  -4.6183  -4.6183  -4.6182  -4.6182  -4.6182  -4.4473  -4.3916
    -4.3916  -4.3916  -4.3906  -4.3906  -4.3906  -4.3906  -4.3906  -4.3906
    -4.3906  -4.3906  -4.3906  -4.3905  -4.3905  -4.3905  -4.3905  -4.3905
    -4.3905  -4.3905  -4.3905  -4.3905  -4.3905  -4.3905  -3.9577  -3.9036
    -3.9036  -3.9036  -3.9030  -3.9030  -3.9030  -3.9030  -3.9030  -3.9030
    -3.9030  -3.9030  -3.8270  -3.7725  -3.7725  -3.7725  -3.7717  -3.7717
    -3.7717  -3.7717  -3.7717  -3.7717  -3.7717  -3.7717  -3.7717  -3.7717
    -3.7717  -3.7717  -3.7717  -3.7717  -3.7717  -3.7717  -3.7717  -3.7716
    -3.7716  -3.7716  -3.6233  -3.6112  -3.6112  -3.6112  -3.5672  -3.5545
    -3.5545  -3.5545  -3.5541  -3.5541  -3.4198  -3.3561  -3.3561  -3.3561
    -3.3547  -3.3547  -3.3547  -3.3547  -3.3547  -3.3547  -3.3547  -3.3547
    -3.3547  -3.3547  -3.3547  -3.3546  -3.3546  -3.3546  -3.3546  -3.3546
    -3.3546  -3.3546  -3.3546  -3.3546  -3.2676  -3.2293  -3.2293  -3.2293
    -3.2282  -3.2282  -3.2282  -3.2282  -3.2282  -3.2282  -3.2282  -3.2282
    -3.2282  -3.2282  -3.2282  -3.2282  -3.2281  -3.2281  -3.2281  -3.2281
    -3.2281  -3.2281  -3.2281  -3.2281  -3.1096  -3.0742  -3.0742  -3.0742
    -3.0737  -3.0737  -3.0737  -3.0737  -3.0737  -3.0736  -3.0736  -3.0736
    -3.0736  -3.0736  -3.0736  -3.0736  -3.0736  -3.0736  -3.0736  -3.0736
    -3.0736  -3.0736  -3.0736  -3.0736  -2.8640  -2.8294  -2.8294  -2.8294
    -2.8286  -2.8286  -2.8286  -2.8284  -2.8284  -2.8284  -2.8284  -2.8284
    -2.8284  -2.8284  -2.8284  -2.8284  -2.8284  -2.8284  -2.8284  -2.8284
    -2.8284  -2.8284  -2.8284  -2.8284  -2.2393  -2.2149  -2.2149  -2.2149
    -2.2147  -2.2147  -2.2147  -2.2146  -2.2146  -2.2146  -2.2145  -2.2145
    -1.8283  -1.8062  -1.8062  -1.8062  -1.8058  -1.8058  -1.7666  -1.7277
    -1.7277  -1.7277  -1.7265  -1.7265  -1.7265  -1.7265  -1.7265  -1.7265
    -1.7264  -1.7264  -1.7264  -1.7264  -1.7264  -1.7264  -1.7264  -1.7264
    -1.7264  -1.7264  -1.7264  -1.7264  -1.7264  -1.7264  -1.6529  -1.6393
    -1.6393  -1.6393  -1.6390  -1.6390  -1.6390  -1.6389  -1.6389  -1.6389
    -1.6389  -1.6389  -1.2379  -1.2183  -1.2183  -1.2183  -1.2177  -1.2177
    -1.2177  -1.2176  -1.2176  -1.2176  -1.2176  -1.2176  -0.9823  -0.9786
    -0.9786  -0.9786  -0.8216  -0.7900  -0.7900  -0.7900  -0.7875  -0.7875
    -0.7875  -0.7875  -0.7875  -0.7874  -0.7874  -0.7874  -0.7874  -0.7874
    -0.7874  -0.7874  -0.7874  -0.7874  -0.7874  -0.7874  -0.7874  -0.7873
    -0.7873  -0.7873  -0.6022  -0.5614  -0.5614  -0.5614  -0.5605  -0.5605
    -0.5605  -0.5604  -0.5604  -0.5604  -0.5604  -0.5604  -0.5603  -0.5603
    -0.5603  -0.5603  -0.5603  -0.5603  -0.5603  -0.5603  -0.5603  -0.5602
    -0.5602  -0.5602  -0.4238  -0.3853  -0.3853  -0.3853  -0.3818  -0.3817
    -0.3817  -0.3817  -0.3816  -0.3816  -0.3816  -0.3816  -0.3816  -0.3816
    -0.3816  -0.3816  -0.3816  -0.3816  -0.3816  -0.3816  -0.3816  -0.3814
    -0.3814  -0.3814  -0.3804  -0.3795  -0.3795  -0.3795  -0.3790  -0.3790
    -0.3790  -0.3789  -0.3789  -0.3789  -0.3789  -0.3789  -0.3789  -0.3789
    -0.3789  -0.3789  -0.3788  -0.3788  -0.3788  -0.3788  -0.3788  -0.3786
    -0.3786  -0.3786   0.0115   0.0435   0.0435   0.0435   0.0440   0.0440
     0.0440   0.0441   0.0441   0.0441   0.0441   0.0441   0.0441   0.0441
     0.0441   0.0441   0.0441   0.0441   0.0441   0.0441   0.0441   0.0443
     0.0443   0.0443   0.2541   0.2616   0.2616   0.2616   0.2617   0.2617
     0.5091   0.5232   0.5232   0.5232   0.5236   0.5236   0.5236   0.5238
     0.5238   0.5241   0.5241   0.5241   0.6933   0.7110   0.7110   0.7110
     0.7127   0.7129   0.7129   0.7129   0.7129   0.7129   0.7129   0.7129
     0.7129   0.7129   0.7129   0.7129   0.7129   0.7129   0.7129   0.7130
     0.7130   0.7137   0.7137   0.7137   1.6829   1.6829   1.6829   1.6833
     1.6844   1.6844   1.6844   1.6844   1.6844   1.6844   1.6845   1.6847
     1.6847   1.7116   1.7116   1.7116   1.7122   1.7122   1.7122   1.7122
     1.7122   1.7123   1.7123   1.7123   1.7123   1.7123   1.7123   1.7123
     1.7123   1.7123   1.7123   1.7124   1.7124   1.7136   1.7136   1.7136
     1.7565   1.7565   1.7565   1.7583   1.7591   1.7591   1.7591   1.7591
     1.7591   1.7591   1.7592   1.7592   1.7592   1.7592   1.7592   1.7592
     1.7592   1.7592   1.7593   1.7594   1.7594   1.7594   1.7597   1.7597
     2.0631   2.0687   2.0687   2.0687   2.0691   2.0697   2.0697   2.0697
     2.1363   2.1363   2.1363   2.1374   2.1374   2.1374   2.1375   2.1375
     2.1375   2.1375   2.1379   2.1379   2.2349   2.2352   2.2352   2.2352
     2.2363   2.2363   2.2363   2.2366   2.2366   2.2367   2.2367   2.2367
     2.4507   2.4560   2.4560   2.4560   2.4578   2.4578   2.4578   2.4578
     2.4578   2.4578   2.4579   2.4579   2.4579   2.4579   2.4579   2.4579
     2.4579   2.4579   2.4579   2.4585   2.4585   2.4585   2.4586   2.4586
     2.4758   2.4824   2.4824   2.4828   2.4828   2.4828   2.5371   2.5418
     2.5418   2.5418   2.5433   2.5433   2.5433   2.5435   2.5435   2.5435
     2.5435   2.5435   2.5435   2.5435   2.5435   2.5435   2.5435   2.5435
     2.5435   2.5440   2.5440   2.5442   2.5442   2.5442   2.5798   2.5798
     2.5798   2.5811   2.5811   2.5811   2.5813   2.5817   2.5817   2.5817
     2.5817   2.5817   2.5817   2.5817   2.5817   2.5817   2.5817   2.5817
     2.5817   2.5820   2.5820   2.5820   2.5823   2.5823   2.6326   2.6326
     2.6326   2.6329   2.6340   2.6340   2.6340   2.6344   2.6344   2.6344
     2.6344   2.6344   2.6344   2.6345   2.6345   2.6345   2.6345   2.6345
     2.6346   2.6349   2.6349   2.6352   2.6352   2.6352   3.1619   3.1619
     3.1619   3.1619   3.1619   3.1619   3.2434   3.2434   3.2434   3.2442
     3.2442   3.2442   3.2446   3.2446   3.2446   3.2446   3.2447   3.2447
     3.2447   3.2447   3.2447   3.2448   3.2448   3.2448   3.2448   3.2453
     3.2453   3.2453   3.2456   3.2456   3.2813   3.2831   3.2831   3.2831
     3.2844   3.2844   3.2844   3.2846   3.2846   3.2846   3.2846   3.2846
     3.2846   3.2846   3.2846   3.2846   3.2846   3.2846   3.2847   3.2849
     3.2849   3.2861   3.2861   3.2861   3.3052   3.3146   3.3146   3.3146
     3.3148   3.3148   3.3148   3.3148   3.3148   3.3163   3.3163   3.3163
     3.4070   3.4070   3.4070   3.4071   3.4071   3.4071   3.4076   3.4076
     3.4076   3.4080   3.4080   3.4080   3.4184   3.4184   3.4184   3.4187
     3.4189   3.4189   3.4189   3.4193   3.4193   3.4193   3.4193   3.4194
     3.4194   3.4194   3.4194   3.4194   3.4194   3.4194   3.4194   3.4199
     3.4199   3.4199   3.4204   3.4204   3.5313   3.5370   3.5370   3.5370
     3.5374   3.5374   3.5374   3.5378   3.5378   3.5378   3.5378   3.5378
     3.5378   3.5378   3.5379   3.5379   3.5379   3.5379   3.5379   3.5383
     3.5383   3.5395   3.5395   3.5395   3.5894   3.5894   3.5894   3.5897
     3.5897   3.5897   3.5899   3.5899   3.5899   3.5899   3.5901   3.5901
     3.8092   3.8092   3.8092   3.8095   3.8095   3.8095   3.8100   3.8100
     3.8100   3.8100   3.8101   3.8101   3.8101   3.8101   3.8101   3.8101
     3.8101   3.8101   3.8101   3.8104   3.8104   3.8108   3.8108   3.8108
     3.8489   3.8489   3.8489   3.8489   3.8489   3.8489   3.8493   3.8494
     3.8494   3.8494   3.8494   3.8494   3.8494   3.8495   3.8495   3.8495
     3.8495   3.8495   3.8495   3.8503   3.8503   3.8503   3.8505   3.8505
     4.1233   4.1233   4.1233   4.1235   4.1235   4.1235   4.1237   4.1237
     4.1237   4.1247   4.1247   4.1248   4.1588   4.1659   4.1659   4.1659
     4.1661   4.1661   4.1661   4.1662   4.1663   4.1663   4.1663   4.1663
     4.1663   4.1664   4.1664   4.1664   4.1664   4.1664   4.1664   4.1669
     4.1669   4.1686   4.1686   4.1686   4.3734   4.3739   4.3739   4.3739
     4.3743   4.3743   4.3743   4.3744   4.3744   4.3758   4.3758   4.3758
     4.4280   4.4280   4.4280   4.4281   4.4281   4.4281   4.4286   4.4286
     4.4286   4.4286   4.4286   4.4286   4.4286   4.4286   4.4286   4.4286
     4.4286   4.4286   4.4287   4.4289   4.4289   4.4310   4.4310   4.4310
     4.5823   4.5837   4.5837   4.5837   4.5838   4.5838   4.5838   4.5839
     4.5839   4.5839   4.5840   4.5840   4.5840   4.5840   4.5840   4.5841
     4.5841   4.5841   4.5841   4.5848   4.5848   4.5864   4.5864   4.5864
     4.6579   4.6628   4.6628   4.6639   4.6639   4.6639   4.6889   4.6889
     4.6889   4.6892   4.6892   4.6892   4.6892   4.6896   4.6896   4.6901
     4.6901   4.6901   4.7513   4.7513   4.7513   4.7521   4.7521   4.7521
     4.7521   4.7521   4.7521   4.7521   4.7521   4.7521   4.7521   4.7521
     4.7521   4.7521   4.7521   4.7521   4.7521   4.7527   4.7527   4.7542
     4.7542   4.7542   4.8196   4.8196   4.8196   4.8200   4.8200   4.8207
     4.8207   4.8207   5.2067   5.2067   5.2067   5.2068   5.2068   5.2068
     5.2069   5.2069   5.2069   5.2091   5.2091   5.2091   5.2565   5.2565
     5.2565   5.2566   5.2566   5.2566   5.2567   5.2567   5.2568   5.2568
     5.2568   5.2569   5.2569   5.2598   5.2598   5.2598   5.7252   5.7252
     5.7252   5.7252   5.7252   5.7252   5.7253   5.7254   5.7254   5.7280
     5.7280   5.7280   6.0175   6.0175   6.0175   6.5317   6.5357   6.5357
     6.5362   6.5362   6.5362   6.6221   6.6262   6.6262   6.6262   6.6263
     6.6263   7.0584   7.0618   7.0618   7.0627   7.0627   7.0627   7.1172
     7.1229   7.1229   7.1229   7.1231   7.1231   7.1231   7.1257   7.1257
     7.1257   7.1261   7.1261   7.4214   7.4379   7.4379   7.4379   7.4407
     7.4442   7.4442   7.4442   7.4444   7.4445   7.4445   7.4445   7.4445
     7.4445   7.4446   7.4446   7.4446   7.4446   7.4446   7.4446   7.4447
     7.4447   7.4447   7.4492   7.4492   7.4495   7.4495   7.4495   7.4551
     7.4582   7.4582   7.4582   7.4599   7.4599   7.8673   7.8824   7.8824
     7.8824   7.8828   7.8828   7.8828   7.8829   7.8829   7.8829   7.8829
     7.8829   7.8829   7.8830   7.8830   7.8830   7.8835   7.8835   7.8835
     7.8854   7.8854   7.8870   7.8870   7.8870   7.8938   7.8996   7.8996
     7.8996   7.9000   7.9000   7.9000   7.9001   7.9001   7.9001   7.9001
     7.9001   7.9001   7.9001   7.9001   7.9001   7.9006   7.9006   7.9006
     7.9063   7.9063   7.9068   7.9068   7.9068   7.9289   7.9369   7.9374
     7.9374   7.9374   7.9397   7.9397   7.9397   7.9661   7.9673   7.9673
     7.9690   7.9690   7.9690   8.1630   8.1791   8.1796   8.1796   8.1796
     8.1797   8.1797   8.1797   8.1798   8.1798   8.1798   8.1798   8.1798
     8.1799   8.1799   8.1799   8.1804   8.1804   8.1804   8.1836   8.1836
     8.1853   8.1853   8.1853   8.2636   8.2846   8.2846   8.2846   8.2848
     8.2848   8.2848   8.2849   8.2849   8.2849   8.2849   8.2849   8.2849
     8.2849   8.2849   8.2849   8.2853   8.2853   8.2853   8.2874   8.2874
     8.2908   8.2908   8.2908   8.3765   8.3829   8.3829   8.3829   8.3833
     8.3833   8.3833   8.3850   8.3850   8.3850   8.3856   8.3856   8.3907
     8.3937   8.3938   8.3938   8.3940   8.3940   8.3940   8.3941   8.3941
     8.3941   8.3942   8.3942   8.3950   8.3950   8.3950   8.3965   8.3965
     8.4027   8.4027   8.4027

     the Fermi energy is     6.3386 ev

!    total energy              =   -5128.14960992 Ry
     estimated scf accuracy    <          7.3E-11 Ry
     smearing contrib. (-TS)   =      -0.00000000 Ry
     internal energy E=F+TS    =   -5128.14960992 Ry

     The total energy is F=E-TS. E is the sum of the following terms:
     one-electron contribution =    1072.71927800 Ry
     hartree contribution      =     404.47267109 Ry
     xc contribution           =   -2256.46259329 Ry
     ewald contribution        =   -4348.87896572 Ry
 
     Band energy sum           =     128.32668701 Ry

     convergence has been achieved in  20 iterations
 
     evp_work_count :  1638.751666
 
     init_run     :     84.07s CPU     15.16s WALL (       1 calls)
     electrons    :   2157.83s CPU    259.74s WALL (       1 calls)

     Called by init_run:
     potinit      :      4.97s CPU      0.85s WALL (       1 calls)
     hinit0       :      2.09s CPU      0.24s WALL (       1 calls)

     Called by electrons:
     c_bands      :   1685.33s CPU    187.37s WALL (      21 calls)
     sum_band     :    297.04s CPU     35.59s WALL (      21 calls)
     v_of_rho     :      3.88s CPU      0.43s WALL (      21 calls)
     mix_rho      :      4.69s CPU      0.53s WALL (      21 calls)

     Called by c_bands:

     Called by sum_band:

     Called by *egterg:

     Called by h_psi:

     General routines
     fft          :     31.61s CPU      3.58s WALL (     125 calls)
     ffts         :      0.26s CPU      0.04s WALL (      21 calls)
     interpolate  :      4.37s CPU      0.48s WALL (      21 calls)
 
     Parallel routines
     fft_scatt_xy :      0.40s CPU      0.02s WALL (     146 calls)
     fft_scatt_yz :     30.36s CPU      3.48s WALL (     146 calls)
 
     PWSCF        :  37m29.87s CPU   4m39.38s WALL

 
   This run was terminated on:  14:31: 8  10Mar2020            

=------------------------------------------------------------------------------=
   JOB DONE.
=------------------------------------------------------------------------------=
========================================================================================================================================================
                                                                         #         Total          %   Parent %        Median           Min           Max
--------------------------------------------------------------------------------------------------------------------------------------------------------
sirius                                                                   1      279.43 s     100.00     100.00      279.43 s      279.43 s      279.43 s
 |- sirius::initialize                                                   1      45.60 ms       0.02       0.02      45.60 ms      45.60 ms      45.60 ms
 |- qe|setup                                                             1      95.01 ms       0.03       0.03      95.01 ms      95.01 ms      95.01 ms
 |- qe|init_run                                                          1       15.16 s       5.42       5.42       15.16 s       15.16 s       15.16 s
 | |- qe|init_run|setup_sirius                                           1        6.07 s       2.17      40.03        6.07 s        6.07 s        6.07 s
 | | |- sirius::Simulation_context::initialize                           1        5.85 s       2.09      96.46        5.85 s        5.85 s        5.85 s
 | | | |- sirius::Simulation_context::init_comm                          1       1.33 ms       0.00       0.02       1.33 ms       1.33 ms       1.33 ms
 | | | |- sirius::Unit_cell::initialize                                  1     285.65 ms       0.10       4.88     285.65 ms     285.65 ms     285.65 ms
 | | | | |- sirius::Atom_type::init                                      2      55.27 us       0.00       0.02      27.63 us       5.39 us      49.88 us
 | | | | |- sirius::Unit_cell::update                                    1     285.07 ms       0.10      99.80     285.07 ms     285.07 ms     285.07 ms
 | | | | | |- sirius::Unit_cell::find_nearest_neighbours                 1     273.41 ms       0.10      95.91     273.41 ms     273.41 ms     273.41 ms
 | | | | | |- sirius::Unit_cell::get_symmetry                            1      11.62 ms       0.00       4.08      11.62 ms      11.62 ms      11.62 ms
 | | | | | | |- sirius::Unit_cell_symmetry                               1       5.90 ms       0.00      50.72       5.90 ms       5.90 ms       5.90 ms
 | | | | | | | |- sirius::Unit_cell_symmetry|spg                         1     484.00 ns       0.00       0.01     484.00 ns     484.00 ns     484.00 ns
 | | | | | | | |- sirius::Unit_cell_symmetry|equiv                       1       5.85 ms       0.00      99.17       5.85 ms       5.85 ms       5.85 ms
 | | | | | | | |- sirius::Unit_cell_symmetry|mag                         1      21.56 us       0.00       0.37      21.56 us      21.56 us      21.56 us
 | | | |
 | | | |- sirius::Simulation_context::update                             1        5.57 s       1.99      95.09        5.57 s        5.57 s        5.57 s
 | | | | |- sirius::Unit_cell::update                                    1     281.96 ms       0.10       5.07     281.96 ms     281.96 ms     281.96 ms
 | | | | | |- sirius::Unit_cell::find_nearest_neighbours                 1     271.60 ms       0.10      96.33     271.60 ms     271.60 ms     271.60 ms
 | | | | | |- sirius::Unit_cell::get_symmetry                            1      10.33 ms       0.00       3.66      10.33 ms      10.33 ms      10.33 ms
 | | | | | | |- sirius::Unit_cell_symmetry                               1       5.86 ms       0.00      56.76       5.86 ms       5.86 ms       5.86 ms
 | | | | | | | |- sirius::Unit_cell_symmetry|spg                         1     125.00 ns       0.00       0.00     125.00 ns     125.00 ns     125.00 ns
 | | | | | | | |- sirius::Unit_cell_symmetry|equiv                       1       5.83 ms       0.00      99.49       5.83 ms       5.83 ms       5.83 ms
 | | | | | | | |- sirius::Unit_cell_symmetry|mag                         1      20.53 us       0.00       0.35      20.53 us      20.53 us      20.53 us
 | | | | |
 | | | | |- sirius::Radial_integrals|rho_core_pseudo                     2       1.81 us       0.00       0.00     902.50 ns     153.00 ns       1.65 us
 | | | | |- sirius::Radial_integrals|rho_pseudo                          1       1.00 ms       0.00       0.02       1.00 ms       1.00 ms       1.00 ms
 | | | | |- sirius::Radial_integrals|vloc                                2       1.89 us       0.00       0.00     944.50 ns     249.00 ns       1.64 us
 | | | | |- sirius::Radial_integrals|atomic_wfs                          4     125.06 ms       0.04       2.25      26.08 ms       4.24 us      72.91 ms
 | | | | |- sddk::Gvec::init                                             2        3.25 s       1.16      58.32        1.62 s     395.23 ms        2.85 s
 | | | | | |- sddk::Gvec::find_gvec_shells                               2        2.73 s       0.98      84.21        1.37 s     321.71 ms        2.41 s
 | | | | |
 | | | | |- sddk::Gvec_shells                                            1     275.92 ms       0.10       4.96     275.92 ms     275.92 ms     275.92 ms
 | | | | |- sirius::Simulation_context::init_atoms_to_grid_idx           1       4.66 ms       0.00       0.08       4.66 ms       4.66 ms       4.66 ms
 | | | | |- sirius::Augmentation_operator::generate_pw_coeffs            2        1.01 s       0.36      18.15     505.04 ms     504.02 ms     506.06 ms
 | | | | | |- sirius::Augmentation_operator::generate_pw_coeffs|1        2       7.19 ms       0.00       0.71       3.59 ms       3.19 ms       4.00 ms
 | | | | | |- sirius::Augmentation_operator::generate_pw_coeffs|2        2     877.28 ms       0.31      86.85     438.64 ms     438.50 ms     438.79 ms
 | | |
 | | |- sirius::K_point_set::add_kpoints                                 1      36.43 us       0.00       0.00      36.43 us      36.43 us      36.43 us
 | | | |- sirius::K_point_set::add_kpoint                                1      25.71 us       0.00      70.58      25.71 us      25.71 us      25.71 us
 | | | | |- sirius::K_point::K_point                                     1       6.47 us       0.00      25.18       6.47 us       6.47 us       6.47 us
 | | |
 | | |- sirius::Smooth_periodic_function                                 2       5.69 ms       0.00       0.09       2.84 ms       2.77 ms       2.92 ms
 | | |- sirius::Potential                                                1      17.33 ms       0.01       0.29      17.33 ms      17.33 ms      17.33 ms
 | | | |- sirius::Smooth_periodic_function                               6      16.87 ms       0.01      97.33       2.81 ms       2.75 ms       2.92 ms
 | | | |- sirius::Potential::update                                      1     171.26 us       0.00       0.99     171.26 us     171.26 us     171.26 us
 | | |
 | | |- sirius::Density                                                  1       4.69 ms       0.00       0.08       4.69 ms       4.69 ms       4.69 ms
 | | | |- sirius::Smooth_periodic_function                               2       2.94 ms       0.00      62.64       1.47 ms     125.91 us       2.81 ms
 | | | |- sirius::Density::update                                        1     161.28 us       0.00       3.44     161.28 us     161.28 us     161.28 us
 | |
 | |- qe|init_vloc                                                       1      93.01 ms       0.03       0.61      93.01 ms      93.01 ms      93.01 ms
 | |- qe|init_run|hinit0|init_us_1                                       1     450.00 ns       0.00       0.00     450.00 ns     450.00 ns     450.00 ns
 | |- qe|init_run|hinit0|init_at_1                                       1      13.09 ms       0.00       0.09      13.09 ms      13.09 ms      13.09 ms
 | |- qe|setlocal                                                        1      33.28 ms       0.01       0.22      33.28 ms      33.28 ms      33.28 ms
 | |- qe|set_rhoc                                                        1      35.78 ms       0.01       0.24      35.78 ms      35.78 ms      35.78 ms
 | |- qe|potinit                                                         1     853.19 ms       0.31       5.63     853.19 ms     853.19 ms     853.19 ms
 | | |- qe|atomic_rho_g                                                  1       1.66 ms       0.00       0.20       1.66 ms       1.66 ms       1.66 ms
 | | | |- sirius_api::sirius_get_pw_coeffs_real                          2     842.82 us       0.00      50.65     421.41 us     413.90 us     428.92 us
 | | |
 | | |- qe|paw_becsum                                                    1     569.00 ns       0.00       0.00     569.00 ns     569.00 ns     569.00 ns
 | | |- sirius_api::sirius_set_pw_coeffs                                 1     771.45 ms       0.28      90.42     771.45 ms     771.45 ms     771.45 ms
 | | | |- sirius::Smooth_periodic_function::fft_transform                1      20.21 ms       0.01       2.62      20.21 ms      20.21 ms      20.21 ms
 | | |
 | | |- qe|paw_potential                                                 1       1.84 us       0.00       0.00       1.84 us       1.84 us       1.84 us
 | | |- qe|set_vrs                                                       1      22.97 ms       0.01       2.69      22.97 ms      22.97 ms      22.97 ms
 | |
 | |- qe|newd                                                            1     425.86 ms       0.15       2.81     425.86 ms     425.86 ms     425.86 ms
 | | |- sirius::Potential::generate_D_operator_matrix                    1     423.31 ms       0.15      99.40     423.31 ms     423.31 ms     423.31 ms
 | |
 | |- sirius::K_point_set::initialize                                    1      49.83 ms       0.02       0.33      49.83 ms      49.83 ms      49.83 ms
 | | |- sirius::K_point::initialize                                      1      49.82 ms       0.02      99.98      49.82 ms      49.82 ms      49.82 ms
 | | | |- sirius::K_point::generate_gkvec                                1      12.45 ms       0.00      24.99      12.45 ms      12.45 ms      12.45 ms
 | | | | |- sddk::Gvec::init                                             1      10.17 ms       0.00      81.72      10.17 ms      10.17 ms      10.17 ms
 | | | |
 | | | |- sddk::matrix_storage::matrix_storage                           1      16.37 us       0.00       0.03      16.37 us      16.37 us      16.37 us
 | | | |- sirius::K_point::update                                        1      37.14 ms       0.01      74.56      37.14 ms      37.14 ms      37.14 ms
 | | | | |- sirius::Beta_projectors                                      1      36.98 ms       0.01      99.57      36.98 ms      36.98 ms      36.98 ms
 | | | | | |- sirius::Beta_projectors::generate_pw_coefs_t               1     359.88 us       0.00       0.97     359.88 us     359.88 us     359.88 us
 | | | | | |- sirius::Beta_projectors_base::generate                     2      36.61 ms       0.01      98.98      18.30 ms      18.29 ms      18.31 ms
 | |
 | |- sirius::Hamiltonian0                                               1       5.39 ms       0.00       0.04       5.39 ms       5.39 ms       5.39 ms
 | | |- sirius::Local_operator                                           1       4.31 ms       0.00      80.06       4.31 ms       4.31 ms       4.31 ms
 | | | |- sirius::Smooth_periodic_function                               1     142.19 us       0.00       3.30     142.19 us     142.19 us     142.19 us
 | | | |- sirius::Smooth_periodic_function::fft_transform                1       4.07 ms       0.00      94.30       4.07 ms       4.07 ms       4.07 ms
 | | |
 | | |- sirius::Non_local_operator                                       2      20.76 us       0.00       0.39      10.38 us       5.38 us      15.38 us
 | | |- sirius::D_operator::initialize                                   1     381.34 us       0.00       7.08     381.34 us     381.34 us     381.34 us
 | | |- sirius::Q_operator::initialize                                   1     183.59 us       0.00       3.41     183.59 us     183.59 us     183.59 us
 | |
 | |- sirius::Band::initialize_subspace                                  1        4.84 s       1.73      31.96        4.84 s        4.84 s        4.84 s
 | | |- sirius::Hamiltonian_k                                            1      16.87 us       0.00       0.00      16.87 us      16.87 us      16.87 us
 | | | |- sirius::Local_operator::prepare_k                              1      15.12 us       0.00      89.61      15.12 us      15.12 us      15.12 us
 | | |
 | | |- sirius::Band::initialize_subspace|kp                             1        4.84 s       1.73     100.00        4.84 s        4.84 s        4.84 s
 | | | |- sddk::matrix_storage::matrix_storage                           4       9.32 us       0.00       0.00       2.35 us     748.00 ns       3.88 us
 | | | |- sirius::Band::initialize_subspace|kp|wf                        1      28.84 ms       0.01       0.60      28.84 ms      28.84 ms      28.84 ms
 | | | | |- sirius::K_point::generate_atomic_wave_functions              1      22.92 ms       0.01      79.47      22.92 ms      22.92 ms      22.92 ms
 | | | |
 | | | |- sirius::Hamiltonian_k::apply_h_s                               1        3.73 s       1.34      77.03        3.73 s        3.73 s        3.73 s
 | | | | |- sirius::Local_operator::apply_h                              1        1.76 s       0.63      47.20        1.76 s        1.76 s        1.76 s
 | | | | | |- sddk::matrix_storage::remap_forward                        1       7.14 us       0.00       0.00       7.14 us       7.14 us       7.14 us
 | | | | | | |- sddk::matrix_storage::set_num_extra                      1       5.13 us       0.00      71.81       5.13 us       5.13 us       5.13 us
 | | | | | |
 | | | | | |- sddk::matrix_storage::set_num_extra                        1     706.00 ns       0.00       0.00     706.00 ns     706.00 ns     706.00 ns
 | | | | | |- sddk::matrix_storage::remap_backward                       1      16.02 us       0.00       0.00      16.02 us      16.02 us      16.02 us
 | | | | |
 | | | | |- sirius::Beta_projectors_base::inner                          2     943.98 ms       0.34      25.30     471.99 ms     444.61 ms     499.37 ms
 | | | | | |- sirius::Beta_projectors_base::inner|comm                   2     464.32 ms       0.17      49.19     232.16 ms     206.85 ms     257.47 ms
 | | | | |
 | | | | |- sirius::Non_local_operator::apply                            4        1.02 s       0.36      27.34     254.72 ms     254.36 ms     256.07 ms
 | | | |
 | | | |- sirius::Band::set_subspace_mtrx                                2     355.93 ms       0.13       7.35     177.97 ms     145.65 ms     210.28 ms
 | | | | |- sddk::inner                                                  2     355.79 ms       0.13      99.96     177.89 ms     145.58 ms     210.21 ms
 | | | | | |- sddk::inner|local                                         18     197.88 ms       0.07      55.62       1.22 ms      32.53 us      24.23 ms
 | | | | | |- sddk::inner|store                                         18     157.60 ms       0.06      44.30       1.35 ms       1.01 us      60.94 ms
 | | | | | | |- sddk::inner|store|mpi                                   18     157.13 ms       0.06      99.70       1.33 ms      96.00 ns      60.87 ms
 | | | |
 | | | |- Eigensolver_scalapack|pdsygvx                                  1     544.76 ms       0.19      11.25     544.76 ms     544.76 ms     544.76 ms
 | | | |- sddk::transform                                                1     174.44 ms       0.06       3.60     174.44 ms     174.44 ms     174.44 ms
 | | | | |- sddk::transform|init                                         1      17.21 ms       0.01       9.87      17.21 ms      17.21 ms      17.21 ms
 | | | | |- sddk::transform|mpi                                          2      54.72 ms       0.02      31.37      27.36 ms       5.86 ms      48.86 ms
 | | | | |- sddk::transform|local                                        2      56.76 ms       0.02      32.54      28.38 ms       1.70 ms      55.06 ms
 |
 |- qe|electrons                                                         1      259.74 s      92.95      92.95      259.74 s      259.74 s      259.74 s
 | |- sirius::Hamiltonian0                                              21      49.58 ms       0.02       0.02       2.08 ms       2.00 ms       4.86 ms
 | | |- sirius::Local_operator                                          21      28.88 ms       0.01      58.25       1.08 ms       1.04 ms       3.89 ms
 | | | |- sirius::Smooth_periodic_function                              21       1.62 ms       0.00       5.62      70.82 us      69.20 us     141.94 us
 | | | |- sirius::Smooth_periodic_function::fft_transform               21      25.59 ms       0.01      88.61     928.44 us     867.14 us       3.75 ms
 | | |
 | | |- sirius::Non_local_operator                                      42     288.67 us       0.00       0.58       7.34 us       4.62 us      16.37 us
 | | |- sirius::D_operator::initialize                                  21       6.56 ms       0.00      13.23     303.72 us     296.52 us     361.41 us
 | | |- sirius::Q_operator::initialize                                  21       4.10 ms       0.00       8.27     185.80 us     182.90 us     276.13 us
 | |
 | |- sirius::Band::solve                                               21      187.32 s      67.03      72.12        8.01 s        2.69 s       25.63 s
 | | |- sirius::Hamiltonian_k                                           21     304.86 us       0.00       0.00      14.07 us      12.44 us      25.97 us
 | | | |- sirius::Local_operator::prepare_k                             21     266.24 us       0.00      87.33      12.83 us      11.52 us      13.55 us
 | | |
 | | |- sirius::Band::diag_pseudo_potential_davidson                    21      187.32 s      67.03     100.00        8.01 s        2.69 s       25.63 s
 | | | |- sirius::Band::diag_pseudo_potential_davidson|alloc            21     376.16 us       0.00       0.00      18.40 us      14.91 us      22.72 us
 | | | | |- sddk::matrix_storage::matrix_storage                       126     114.98 us       0.00      30.57     784.50 ns     459.00 ns       2.55 us
 | | | |
 | | | |- sirius::Hamiltonian_k::get_h_o_diag                           21     147.43 ms       0.05       0.08       7.01 ms       6.93 ms       7.16 ms
 | | | |- sirius::Band::diag_pseudo_potential_davidson|iter             21      187.17 s      66.98      99.92        8.00 s        2.68 s       25.62 s
 | | | | |- sirius::Hamiltonian_k::apply_h_s                           100       93.59 s      33.49      50.00     605.03 ms      23.11 ms        2.07 s
 | | | | | |- sirius::Local_operator::apply_h                          100       48.01 s      17.18      51.30     271.81 ms     989.09 us        1.09 s
 | | | | | | |- sddk::matrix_storage::remap_forward                    100     315.63 us       0.00       0.00       2.56 us       1.79 us      13.32 us
 | | | | | | | |- sddk::matrix_storage::set_num_extra                  100     278.47 us       0.00      88.23       2.23 us       1.51 us      13.04 us
 | | | | | | |
 | | | | | | |- sddk::matrix_storage::set_num_extra                    100      69.17 us       0.00       0.00     682.00 ns     397.00 ns       1.29 us
 | | | | | | |- sddk::matrix_storage::remap_backward                   100      42.66 us       0.00       0.00     409.50 ns     181.00 ns     762.00 ns
 | | | | | |
 | | | | | |- sirius::Beta_projectors_base::inner                      200       20.19 s       7.22      21.57      59.60 ms       3.76 ms     277.14 ms
 | | | | | | |- sirius::Beta_projectors_base::inner|comm               200        8.44 s       3.02      41.82      18.65 ms     166.16 us     155.58 ms
 | | | | | |
 | | | | | |- sirius::Non_local_operator::apply                        400       25.20 s       9.02      26.93      52.69 ms       3.57 ms     132.46 ms
 | | | | |
 | | | | |- sddk::orthogonalize                                        100       21.80 s       7.80      11.65     162.24 ms       7.04 ms     747.19 ms
 | | | | | |- sddk::inner                                              179        5.62 s       2.01      25.77      14.54 ms      75.67 us     171.06 ms
 | | | | | | |- sddk::inner|local                                      493        2.91 s       1.04      51.76       2.65 ms      10.82 us      27.39 ms
 | | | | | | |- sddk::inner|store                                      493        2.70 s       0.97      48.13     755.06 us     413.00 ns      86.75 ms
 | | | | | | | |- sddk::inner|store|mpi                                493        2.70 s       0.97      99.75     749.79 us     118.00 ns      86.69 ms
 | | | | | |
 | | | | | |- sddk::orthogonalize|potrf                                100     383.46 ms       0.14       1.76       1.97 ms     107.02 us      32.82 ms
 | | | | | |- sddk::orthogonalize|trtri                                100     333.19 ms       0.12       1.53     880.61 us      89.46 us      19.45 ms
 | | | | | |- sddk::transform                                          379       14.24 s       5.10      65.33      15.58 ms      49.69 us     281.06 ms
 | | | | | | |- sddk::transform|init                                   379     865.91 ms       0.31       6.08     775.43 us     840.00 ns      11.70 ms
 | | | | | | |- sddk::transform|mpi                                    447        1.97 s       0.71      13.84       1.90 ms      25.54 us      28.49 ms
 | | | | | | |- sddk::transform|local                                  741        8.15 s       2.91      57.18       3.68 ms       2.05 us      52.91 ms
 | | | | |
 | | | | |- sirius::Band::set_subspace_mtrx                            100        4.34 s       1.55       2.32      34.34 ms       1.24 ms     158.93 ms
 | | | | | |- sddk::inner                                              100        4.31 s       1.54      99.43      34.03 ms       1.17 ms     158.43 ms
 | | | | | | |- sddk::inner|local                                      408        2.91 s       1.04      67.45       4.15 ms     134.89 us      27.18 ms
 | | | | | | |- sddk::inner|store                                      408        1.40 s       0.50      32.45     534.71 us     399.00 ns      27.87 ms
 | | | | | | | |- sddk::inner|store|mpi                                408        1.39 s       0.50      99.64     532.31 us     120.00 ns      27.82 ms
 | | | | |
 | | | | |- sirius::Band::diag_pseudo_potential_davidson|evp           100       57.78 s      20.68      30.87     494.54 ms     198.70 ms        1.96 s
 | | | | | |- Eigensolver_scalapack|pdsyevx                            100       57.78 s      20.68     100.00     494.54 ms     198.70 ms        1.96 s
 | | | | |
 | | | | |- sirius::residuals                                          100        6.35 s       2.27       3.39      47.60 ms      12.51 us     238.46 ms
 | | | | | |- sddk::transform                                           84        5.71 s       2.04      89.85      55.94 ms       4.54 ms     223.40 ms
 | | | | | | |- sddk::transform|init                                    84     323.92 ms       0.12       5.68       2.34 ms       6.73 us      10.08 ms
 | | | | | | |- sddk::transform|mpi                                    153     970.83 ms       0.35      17.01       3.58 ms      66.10 us      45.97 ms
 | | | | | | |- sddk::transform|local                                  306        3.45 s       1.24      60.49       5.51 ms     161.14 us      52.80 ms
 | | | | | |
 | | | | | |- sirius::normalized_preconditioned_residuals               84     621.62 ms       0.22       9.79       4.20 ms     205.35 us      21.05 ms
 | | | | |
 | | | | |- sirius::Band::diag_pseudo_potential_davidson|update_phi     21        3.13 s       1.12       1.67     155.25 ms      65.74 ms     263.07 ms
 | | | | | |- sddk::transform                                           21        3.13 s       1.12      99.99     155.24 ms      65.73 ms     263.06 ms
 | | | | | | |- sddk::transform|init                                    21     105.06 ms       0.04       3.36       4.99 ms       4.95 ms       5.16 ms
 | | | | | | |- sddk::transform|mpi                                     38     552.15 ms       0.20      17.65      15.83 ms       6.18 ms      21.60 ms
 | | | | | | |- sddk::transform|local                                   38        1.52 s       0.54      48.45      45.92 ms      12.22 ms      56.04 ms
 | | |
 | | |- sirius::K_point_set::sync_band_energies                         21     383.27 us       0.00       0.00      17.36 us      16.18 us      26.17 us
 | |
 | |- qe|sum_band                                                       21       35.57 s      12.73      13.69        1.68 s        1.66 s        1.78 s
 | | |- sirius::Density::generate                                       21       26.55 s       9.50      74.64        1.26 s        1.24 s        1.32 s
 | | | |- sirius::Density::generate_valence                             21       26.55 s       9.50     100.00        1.26 s        1.24 s        1.32 s
 | | | | |- sddk::matrix_storage::remap_forward                         21     134.59 us       0.00       0.00       4.99 us       3.35 us      21.42 us
 | | | | | |- sddk::matrix_storage::set_num_extra                       21     126.25 us       0.00      93.80       4.51 us       3.04 us      21.09 us
 | | | | |
 | | | | |- sirius::Density::add_k_point_contribution_dm                21        7.47 s       2.67      28.13     352.64 ms     347.31 ms     409.26 ms
 | | | | | |- sirius::Beta_projectors_base::inner                       42        7.46 s       2.67      99.83     176.00 ms     167.47 ms     240.35 ms
 | | | | | | |- sirius::Beta_projectors_base::inner|comm                42        3.10 s       1.11      41.51      72.02 ms      63.50 ms     137.68 ms
 | | | | |
 | | | | |- sirius::Density::add_k_point_contribution_rg                21       10.35 s       3.70      38.98     489.04 ms     478.15 ms     538.82 ms
 | | | | |- sirius::Smooth_periodic_function::fft_transform             21      16.08 ms       0.01       0.06     749.29 us     686.77 us       1.04 ms
 | | | | |- sirius::Density::augment                                    21        8.57 s       3.07      32.28     408.36 ms     404.28 ms     410.23 ms
 | | | | | |- sirius::Density::generate_rho_aug                         21        8.57 s       3.07      99.99     408.30 ms     404.22 ms     410.17 ms
 | | | | | | |- sirius::Density::generate_rho_aug|gemm                  42        3.01 s       1.08      35.11      71.09 ms      17.01 ms     127.12 ms
 | | | | | | |- sirius::Density::generate_rho_aug|sum                   42        1.30 s       0.47      15.20      30.96 ms      30.64 ms      31.33 ms
 | | |
 | | |- sirius_api::sirius_get_pw_coeffs                                21        6.55 s       2.34      18.41     304.44 ms     294.59 ms     352.94 ms
 | | | |- sirius::Smooth_periodic_function::gather_f_pw                 21        6.44 s       2.30      98.28     299.12 ms     289.28 ms     347.76 ms
 | | |
 | | |- qe|sym_rho                                                      21      45.07 us       0.00       0.00       2.00 us       1.80 us       5.77 us
 | |
 | |- qe|mix                                                            21     525.33 ms       0.19       0.20      28.39 ms     232.13 us      29.28 ms
 | |- sirius_api::sirius_set_pw_coeffs                                  20       27.47 s       9.83      10.58        1.33 s        1.26 s        1.56 s
 | | |- sirius::Smooth_periodic_function::fft_transform                 20     152.57 ms       0.05       0.56       7.29 ms       6.89 ms      14.46 ms
 | |
 | |- qe|newd                                                           20        7.59 s       2.72       2.92     378.85 ms     377.57 ms     385.09 ms
 | | |- sirius::Potential::generate_D_operator_matrix                   20        7.55 s       2.70      99.49     376.90 ms     375.64 ms     383.17 ms
 |
 |- sirius_api::sirius_get_wave_functions                                1        2.47 s       0.88       0.88        2.47 s        2.47 s        2.47 s
 | |- sddk::matrix_storage::matrix_storage                               1      20.10 us       0.00       0.00      20.10 us      20.10 us      20.10 us
 |
 |- qe|ions                                                              1        1.29 s       0.46       0.46        1.29 s        1.29 s        1.29 s
 | |- sirius_api::sirius_set_pw_coeffs                                   1        1.29 s       0.46      99.88        1.29 s        1.29 s        1.29 s
 | | |- sirius::Smooth_periodic_function::fft_transform                  1       7.31 ms       0.00       0.57       7.31 ms       7.31 ms       7.31 ms
 |
 |- qe|punch                                                             1     855.00 ns       0.00       0.00     855.00 ns     855.00 ns     855.00 ns
 |- sirius::finalize                                                     1      17.88 us       0.00       0.00      17.88 us      17.88 us      17.88 us

========================================================================================================================================================
 
Batch Job Summary Report for Job "test_scf" (20933727) on daint
-----------------------------------------------------------------------------------------------------
             Submit            Eligible               Start                 End    Elapsed  Timelimit 
------------------- ------------------- ------------------- ------------------- ---------- ---------- 
2020-03-10T14:24:38 2020-03-10T14:24:38 2020-03-10T14:25:48 2020-03-10T14:31:33   00:05:45   00:20:00 
-----------------------------------------------------------------------------------------------------
Username    Account     Partition   NNodes   Energy
----------  ----------  ----------  ------  --------------
antonk      csstaff     normal          25        0 joules
 
This job did not utilize any GPUs
 
----------------------------------------------------------
Scratch File System        Files       Quota
--------------------  ----------  ----------
/scratch/snx3000            2642     1000000
 
