SIRIUS 6.5.1, git hash: 03934cb413e35367d189966c763df8be178f72e3

     Program PWSCF v.6.5 starts on 10Mar2020 at 14:12:22 

     This program is part of the open-source Quantum ESPRESSO suite
     for quantum simulation of materials; please cite
         "P. Giannozzi et al., J. Phys.:Condens. Matter 21 395502 (2009);
         "P. Giannozzi et al., J. Phys.:Condens. Matter 29 465901 (2017);
          URL http://www.quantum-espresso.org", 
     in publications or presentations arising from this work. More details at
     http://www.quantum-espresso.org/quote

     Parallel version (MPI & OpenMP), running on     576 processor cores
     Number of MPI processes:                64
     Threads/MPI process:                     9

     MPI processes distributed on    16 nodes
     R & G space division:  proc/nbgrp/npool/nimage =      64
     Reading input from pw.in
     Message from routine read_cards :
     DEPRECATED: no units specified in CELL_PARAMETERS card
Warning: card 1 1 1  0 0 0 ignored

     Current dimensions of program PWSCF are:
     Max number of different atomic species (ntypx) = 10
     Max number of k-points (npk) =  40000
     Max angular momentum in pseudopotentials (lmaxx) =  3
     Message from routine cell_base_init:
     DEPRECATED: use true lattice parameter, not A to a.u. conversion factor

     gamma-point specific algorithms are used

     Subspace diagonalization in iterative solution of the eigenvalue problem:
     one sub-group per band group will be used
     scalapack distributed-memory algorithm (size of sub-group:  8*  8 procs)

     Message from routine setup:
     using ibrav=0 with symmetry is DISCOURAGED, use correct ibrav instead
 
     Parallelization info
     --------------------
     sticks:   dense  smooth     PW     G-vecs:    dense   smooth      PW
     Min        1255     334     83               268228    36930    4620
     Max        1258     336     86               268236    36952    4628
     Sum       80461   21449   5377             17166821  2364101  295907
 


     bravais-lattice index     =            0
     lattice parameter (alat)  =       1.0000  a.u.
     unit-cell volume          =   69174.1805 (a.u.)^3
     number of atoms/cell      =          512
     number of atomic types    =            2
     number of electrons       =      2058.00
     number of Kohn-Sham states=         1235
     kinetic-energy cutoff     =      40.0000  Ry
     charge density cutoff     =     600.0000  Ry
     convergence threshold     =      1.0E-10
     mixing beta               =       0.7000
     number of iterations used =            8  plain     mixing
     Exchange-correlation= SLA  PZ   NOGX NOGC
                           (   1   1   0   0   0   0   0)

     celldm(1)=   1.000000  celldm(2)=   0.000000  celldm(3)=   0.000000
     celldm(4)=   0.000000  celldm(5)=   0.000000  celldm(6)=   0.000000

     crystal axes: (cart. coord. in units of alat)
               a(1) = (  41.050143   0.000000   0.000000 )  
               a(2) = (   0.000000  41.050143   0.000000 )  
               a(3) = (   0.000000   0.000000  41.050143 )  

     reciprocal axes: (cart. coord. in units 2 pi/alat)
               b(1) = (  0.024360  0.000000  0.000000 )  
               b(2) = (  0.000000  0.024360  0.000000 )  
               b(3) = (  0.000000  0.000000  0.024360 )  


     PseudoPot. # 1 for Ge read from file:
     ./ge_lda_v1.uspp.F.UPF
     MD5 check sum: 575f587c0f86b3eee266efe92ef02c15
     Pseudo is Ultrasoft + core correction, Zval = 14.0
     Generated by new atomic code, or converted to UPF format
     Using radial grid of  873 points,  6 beta functions with: 
                l(1) =   0
                l(2) =   0
                l(3) =   1
                l(4) =   1
                l(5) =   2
                l(6) =   2
     Q(r) pseudized with  8 coefficients,  rinner =    1.400   1.400   1.400
                                                       1.400   1.400

     PseudoPot. # 2 for Si read from file:
     ./si_lda_v1.uspp.F.UPF
     MD5 check sum: ca10e49b2835512e91ee5100d37237e0
     Pseudo is Ultrasoft + core correction, Zval =  4.0
     Generated by new atomic code, or converted to UPF format
     Using radial grid of  899 points,  6 beta functions with: 
                l(1) =   0
                l(2) =   0
                l(3) =   1
                l(4) =   1
                l(5) =   2
                l(6) =   2
     Q(r) pseudized with  8 coefficients,  rinner =    0.900   0.900   0.900
                                                       0.900   0.900

     atomic species   valence    mass     pseudopotential
        Ge            14.00    72.61000     Ge( 1.00)
        Si             4.00    28.08550     Si( 1.00)

     24 Sym. Ops. (no inversion) found



   Cartesian axes

     site n.     atom                  positions (alat units)
         1           Ge  tau(   1) = (   0.0000000   0.0000000   0.0000000  )
         2           Si  tau(   2) = (  20.5250715  20.5250715  20.5250715  )
         3           Si  tau(   3) = (  20.5250715  20.5250715  30.7876073  )
         4           Si  tau(   4) = (  20.5250715  20.5250715   0.0000000  )
         5           Si  tau(   5) = (  20.5250715  20.5250715  10.2625357  )
         6           Si  tau(   6) = (  20.5250715  30.7876073  20.5250715  )
         7           Si  tau(   7) = (  20.5250715  30.7876073  30.7876073  )
         8           Si  tau(   8) = (  20.5250715  30.7876073   0.0000000  )
         9           Si  tau(   9) = (  20.5250715  30.7876073  10.2625357  )
        10           Si  tau(  10) = (  20.5250715   0.0000000  20.5250715  )
        11           Si  tau(  11) = (  20.5250715   0.0000000  30.7876073  )
        12           Si  tau(  12) = (  20.5250715   0.0000000   0.0000000  )
        13           Si  tau(  13) = (  20.5250715   0.0000000  10.2625357  )
        14           Si  tau(  14) = (  20.5250715  10.2625357  20.5250715  )
        15           Si  tau(  15) = (  20.5250715  10.2625357  30.7876073  )
        16           Si  tau(  16) = (  20.5250715  10.2625357   0.0000000  )
        17           Si  tau(  17) = (  20.5250715  10.2625357  10.2625357  )
        18           Si  tau(  18) = (  30.7876073  20.5250715  20.5250715  )
        19           Si  tau(  19) = (  30.7876073  20.5250715  30.7876073  )
        20           Si  tau(  20) = (  30.7876073  20.5250715   0.0000000  )
        21           Si  tau(  21) = (  30.7876073  20.5250715  10.2625357  )
        22           Si  tau(  22) = (  30.7876073  30.7876073  20.5250715  )
        23           Si  tau(  23) = (  30.7876073  30.7876073  30.7876073  )
        24           Si  tau(  24) = (  30.7876073  30.7876073   0.0000000  )
        25           Si  tau(  25) = (  30.7876073  30.7876073  10.2625357  )
        26           Si  tau(  26) = (  30.7876073   0.0000000  20.5250715  )
        27           Si  tau(  27) = (  30.7876073   0.0000000  30.7876073  )
        28           Si  tau(  28) = (  30.7876073   0.0000000   0.0000000  )
        29           Si  tau(  29) = (  30.7876073   0.0000000  10.2625357  )
        30           Si  tau(  30) = (  30.7876073  10.2625357  20.5250715  )
        31           Si  tau(  31) = (  30.7876073  10.2625357  30.7876073  )
        32           Si  tau(  32) = (  30.7876073  10.2625357   0.0000000  )
        33           Si  tau(  33) = (  30.7876073  10.2625357  10.2625357  )
        34           Si  tau(  34) = (   0.0000000  20.5250715  20.5250715  )
        35           Si  tau(  35) = (   0.0000000  20.5250715  30.7876073  )
        36           Si  tau(  36) = (   0.0000000  20.5250715   0.0000000  )
        37           Si  tau(  37) = (   0.0000000  20.5250715  10.2625357  )
        38           Si  tau(  38) = (   0.0000000  30.7876073  20.5250715  )
        39           Si  tau(  39) = (   0.0000000  30.7876073  30.7876073  )
        40           Si  tau(  40) = (   0.0000000  30.7876073   0.0000000  )
        41           Si  tau(  41) = (   0.0000000  30.7876073  10.2625357  )
        42           Si  tau(  42) = (   0.0000000   0.0000000  20.5250715  )
        43           Si  tau(  43) = (   0.0000000   0.0000000  30.7876073  )
        44           Si  tau(  44) = (   0.0000000   0.0000000  10.2625357  )
        45           Si  tau(  45) = (   0.0000000  10.2625357  20.5250715  )
        46           Si  tau(  46) = (   0.0000000  10.2625357  30.7876073  )
        47           Si  tau(  47) = (   0.0000000  10.2625357   0.0000000  )
        48           Si  tau(  48) = (   0.0000000  10.2625357  10.2625357  )
        49           Si  tau(  49) = (  10.2625357  20.5250715  20.5250715  )
        50           Si  tau(  50) = (  10.2625357  20.5250715  30.7876073  )
        51           Si  tau(  51) = (  10.2625357  20.5250715   0.0000000  )
        52           Si  tau(  52) = (  10.2625357  20.5250715  10.2625357  )
        53           Si  tau(  53) = (  10.2625357  30.7876073  20.5250715  )
        54           Si  tau(  54) = (  10.2625357  30.7876073  30.7876073  )
        55           Si  tau(  55) = (  10.2625357  30.7876073   0.0000000  )
        56           Si  tau(  56) = (  10.2625357  30.7876073  10.2625357  )
        57           Si  tau(  57) = (  10.2625357   0.0000000  20.5250715  )
        58           Si  tau(  58) = (  10.2625357   0.0000000  30.7876073  )
        59           Si  tau(  59) = (  10.2625357   0.0000000   0.0000000  )
        60           Si  tau(  60) = (  10.2625357   0.0000000  10.2625357  )
        61           Si  tau(  61) = (  10.2625357  10.2625357  20.5250715  )
        62           Si  tau(  62) = (  10.2625357  10.2625357  30.7876073  )
        63           Si  tau(  63) = (  10.2625357  10.2625357   0.0000000  )
        64           Si  tau(  64) = (  10.2625357  10.2625357  10.2625357  )
        65           Si  tau(  65) = (  20.5250715  25.6563394  25.6563394  )
        66           Si  tau(  66) = (  20.5250715  25.6563394  35.9188751  )
        67           Si  tau(  67) = (  20.5250715  25.6563394   5.1312679  )
        68           Si  tau(  68) = (  20.5250715  25.6563394  15.3938036  )
        69           Si  tau(  69) = (  20.5250715  35.9188751  25.6563394  )
        70           Si  tau(  70) = (  20.5250715  35.9188751  35.9188751  )
        71           Si  tau(  71) = (  20.5250715  35.9188751   5.1312679  )
        72           Si  tau(  72) = (  20.5250715  35.9188751  15.3938036  )
        73           Si  tau(  73) = (  20.5250715   5.1312679  25.6563394  )
        74           Si  tau(  74) = (  20.5250715   5.1312679  35.9188751  )
        75           Si  tau(  75) = (  20.5250715   5.1312679   5.1312679  )
        76           Si  tau(  76) = (  20.5250715   5.1312679  15.3938036  )
        77           Si  tau(  77) = (  20.5250715  15.3938036  25.6563394  )
        78           Si  tau(  78) = (  20.5250715  15.3938036  35.9188751  )
        79           Si  tau(  79) = (  20.5250715  15.3938036   5.1312679  )
        80           Si  tau(  80) = (  20.5250715  15.3938036  15.3938036  )
        81           Si  tau(  81) = (  30.7876073  25.6563394  25.6563394  )
        82           Si  tau(  82) = (  30.7876073  25.6563394  35.9188751  )
        83           Si  tau(  83) = (  30.7876073  25.6563394   5.1312679  )
        84           Si  tau(  84) = (  30.7876073  25.6563394  15.3938036  )
        85           Si  tau(  85) = (  30.7876073  35.9188751  25.6563394  )
        86           Si  tau(  86) = (  30.7876073  35.9188751  35.9188751  )
        87           Si  tau(  87) = (  30.7876073  35.9188751   5.1312679  )
        88           Si  tau(  88) = (  30.7876073  35.9188751  15.3938036  )
        89           Si  tau(  89) = (  30.7876073   5.1312679  25.6563394  )
        90           Si  tau(  90) = (  30.7876073   5.1312679  35.9188751  )
        91           Si  tau(  91) = (  30.7876073   5.1312679   5.1312679  )
        92           Si  tau(  92) = (  30.7876073   5.1312679  15.3938036  )
        93           Si  tau(  93) = (  30.7876073  15.3938036  25.6563394  )
        94           Si  tau(  94) = (  30.7876073  15.3938036  35.9188751  )
        95           Si  tau(  95) = (  30.7876073  15.3938036   5.1312679  )
        96           Si  tau(  96) = (  30.7876073  15.3938036  15.3938036  )
        97           Si  tau(  97) = (   0.0000000  25.6563394  25.6563394  )
        98           Si  tau(  98) = (   0.0000000  25.6563394  35.9188751  )
        99           Si  tau(  99) = (   0.0000000  25.6563394   5.1312679  )
       100           Si  tau( 100) = (   0.0000000  25.6563394  15.3938036  )
       101           Si  tau( 101) = (   0.0000000  35.9188751  25.6563394  )
       102           Si  tau( 102) = (   0.0000000  35.9188751  35.9188751  )
       103           Si  tau( 103) = (   0.0000000  35.9188751   5.1312679  )
       104           Si  tau( 104) = (   0.0000000  35.9188751  15.3938036  )
       105           Si  tau( 105) = (   0.0000000   5.1312679  25.6563394  )
       106           Si  tau( 106) = (   0.0000000   5.1312679  35.9188751  )
       107           Si  tau( 107) = (   0.0000000   5.1312679   5.1312679  )
       108           Si  tau( 108) = (   0.0000000   5.1312679  15.3938036  )
       109           Si  tau( 109) = (   0.0000000  15.3938036  25.6563394  )
       110           Si  tau( 110) = (   0.0000000  15.3938036  35.9188751  )
       111           Si  tau( 111) = (   0.0000000  15.3938036   5.1312679  )
       112           Si  tau( 112) = (   0.0000000  15.3938036  15.3938036  )
       113           Si  tau( 113) = (  10.2625357  25.6563394  25.6563394  )
       114           Si  tau( 114) = (  10.2625357  25.6563394  35.9188751  )
       115           Si  tau( 115) = (  10.2625357  25.6563394   5.1312679  )
       116           Si  tau( 116) = (  10.2625357  25.6563394  15.3938036  )
       117           Si  tau( 117) = (  10.2625357  35.9188751  25.6563394  )
       118           Si  tau( 118) = (  10.2625357  35.9188751  35.9188751  )
       119           Si  tau( 119) = (  10.2625357  35.9188751   5.1312679  )
       120           Si  tau( 120) = (  10.2625357  35.9188751  15.3938036  )
       121           Si  tau( 121) = (  10.2625357   5.1312679  25.6563394  )
       122           Si  tau( 122) = (  10.2625357   5.1312679  35.9188751  )
       123           Si  tau( 123) = (  10.2625357   5.1312679   5.1312679  )
       124           Si  tau( 124) = (  10.2625357   5.1312679  15.3938036  )
       125           Si  tau( 125) = (  10.2625357  15.3938036  25.6563394  )
       126           Si  tau( 126) = (  10.2625357  15.3938036  35.9188751  )
       127           Si  tau( 127) = (  10.2625357  15.3938036   5.1312679  )
       128           Si  tau( 128) = (  10.2625357  15.3938036  15.3938036  )
       129           Si  tau( 129) = (  25.6563394  20.5250715  25.6563394  )
       130           Si  tau( 130) = (  25.6563394  20.5250715  35.9188751  )
       131           Si  tau( 131) = (  25.6563394  20.5250715   5.1312679  )
       132           Si  tau( 132) = (  25.6563394  20.5250715  15.3938036  )
       133           Si  tau( 133) = (  25.6563394  30.7876073  25.6563394  )
       134           Si  tau( 134) = (  25.6563394  30.7876073  35.9188751  )
       135           Si  tau( 135) = (  25.6563394  30.7876073   5.1312679  )
       136           Si  tau( 136) = (  25.6563394  30.7876073  15.3938036  )
       137           Si  tau( 137) = (  25.6563394   0.0000000  25.6563394  )
       138           Si  tau( 138) = (  25.6563394   0.0000000  35.9188751  )
       139           Si  tau( 139) = (  25.6563394   0.0000000   5.1312679  )
       140           Si  tau( 140) = (  25.6563394   0.0000000  15.3938036  )
       141           Si  tau( 141) = (  25.6563394  10.2625357  25.6563394  )
       142           Si  tau( 142) = (  25.6563394  10.2625357  35.9188751  )
       143           Si  tau( 143) = (  25.6563394  10.2625357   5.1312679  )
       144           Si  tau( 144) = (  25.6563394  10.2625357  15.3938036  )
       145           Si  tau( 145) = (  35.9188751  20.5250715  25.6563394  )
       146           Si  tau( 146) = (  35.9188751  20.5250715  35.9188751  )
       147           Si  tau( 147) = (  35.9188751  20.5250715   5.1312679  )
       148           Si  tau( 148) = (  35.9188751  20.5250715  15.3938036  )
       149           Si  tau( 149) = (  35.9188751  30.7876073  25.6563394  )
       150           Si  tau( 150) = (  35.9188751  30.7876073  35.9188751  )
       151           Si  tau( 151) = (  35.9188751  30.7876073   5.1312679  )
       152           Si  tau( 152) = (  35.9188751  30.7876073  15.3938036  )
       153           Si  tau( 153) = (  35.9188751   0.0000000  25.6563394  )
       154           Si  tau( 154) = (  35.9188751   0.0000000  35.9188751  )
       155           Si  tau( 155) = (  35.9188751   0.0000000   5.1312679  )
       156           Si  tau( 156) = (  35.9188751   0.0000000  15.3938036  )
       157           Si  tau( 157) = (  35.9188751  10.2625357  25.6563394  )
       158           Si  tau( 158) = (  35.9188751  10.2625357  35.9188751  )
       159           Si  tau( 159) = (  35.9188751  10.2625357   5.1312679  )
       160           Si  tau( 160) = (  35.9188751  10.2625357  15.3938036  )
       161           Si  tau( 161) = (   5.1312679  20.5250715  25.6563394  )
       162           Si  tau( 162) = (   5.1312679  20.5250715  35.9188751  )
       163           Si  tau( 163) = (   5.1312679  20.5250715   5.1312679  )
       164           Si  tau( 164) = (   5.1312679  20.5250715  15.3938036  )
       165           Si  tau( 165) = (   5.1312679  30.7876073  25.6563394  )
       166           Si  tau( 166) = (   5.1312679  30.7876073  35.9188751  )
       167           Si  tau( 167) = (   5.1312679  30.7876073   5.1312679  )
       168           Si  tau( 168) = (   5.1312679  30.7876073  15.3938036  )
       169           Si  tau( 169) = (   5.1312679   0.0000000  25.6563394  )
       170           Si  tau( 170) = (   5.1312679   0.0000000  35.9188751  )
       171           Si  tau( 171) = (   5.1312679   0.0000000   5.1312679  )
       172           Si  tau( 172) = (   5.1312679   0.0000000  15.3938036  )
       173           Si  tau( 173) = (   5.1312679  10.2625357  25.6563394  )
       174           Si  tau( 174) = (   5.1312679  10.2625357  35.9188751  )
       175           Si  tau( 175) = (   5.1312679  10.2625357   5.1312679  )
       176           Si  tau( 176) = (   5.1312679  10.2625357  15.3938036  )
       177           Si  tau( 177) = (  15.3938036  20.5250715  25.6563394  )
       178           Si  tau( 178) = (  15.3938036  20.5250715  35.9188751  )
       179           Si  tau( 179) = (  15.3938036  20.5250715   5.1312679  )
       180           Si  tau( 180) = (  15.3938036  20.5250715  15.3938036  )
       181           Si  tau( 181) = (  15.3938036  30.7876073  25.6563394  )
       182           Si  tau( 182) = (  15.3938036  30.7876073  35.9188751  )
       183           Si  tau( 183) = (  15.3938036  30.7876073   5.1312679  )
       184           Si  tau( 184) = (  15.3938036  30.7876073  15.3938036  )
       185           Si  tau( 185) = (  15.3938036   0.0000000  25.6563394  )
       186           Si  tau( 186) = (  15.3938036   0.0000000  35.9188751  )
       187           Si  tau( 187) = (  15.3938036   0.0000000   5.1312679  )
       188           Si  tau( 188) = (  15.3938036   0.0000000  15.3938036  )
       189           Si  tau( 189) = (  15.3938036  10.2625357  25.6563394  )
       190           Si  tau( 190) = (  15.3938036  10.2625357  35.9188751  )
       191           Si  tau( 191) = (  15.3938036  10.2625357   5.1312679  )
       192           Si  tau( 192) = (  15.3938036  10.2625357  15.3938036  )
       193           Si  tau( 193) = (  25.6563394  25.6563394  20.5250715  )
       194           Si  tau( 194) = (  25.6563394  25.6563394  30.7876073  )
       195           Si  tau( 195) = (  25.6563394  25.6563394   0.0000000  )
       196           Si  tau( 196) = (  25.6563394  25.6563394  10.2625357  )
       197           Si  tau( 197) = (  25.6563394  35.9188751  20.5250715  )
       198           Si  tau( 198) = (  25.6563394  35.9188751  30.7876073  )
       199           Si  tau( 199) = (  25.6563394  35.9188751   0.0000000  )
       200           Si  tau( 200) = (  25.6563394  35.9188751  10.2625357  )
       201           Si  tau( 201) = (  25.6563394   5.1312679  20.5250715  )
       202           Si  tau( 202) = (  25.6563394   5.1312679  30.7876073  )
       203           Si  tau( 203) = (  25.6563394   5.1312679   0.0000000  )
       204           Si  tau( 204) = (  25.6563394   5.1312679  10.2625357  )
       205           Si  tau( 205) = (  25.6563394  15.3938036  20.5250715  )
       206           Si  tau( 206) = (  25.6563394  15.3938036  30.7876073  )
       207           Si  tau( 207) = (  25.6563394  15.3938036   0.0000000  )
       208           Si  tau( 208) = (  25.6563394  15.3938036  10.2625357  )
       209           Si  tau( 209) = (  35.9188751  25.6563394  20.5250715  )
       210           Si  tau( 210) = (  35.9188751  25.6563394  30.7876073  )
       211           Si  tau( 211) = (  35.9188751  25.6563394   0.0000000  )
       212           Si  tau( 212) = (  35.9188751  25.6563394  10.2625357  )
       213           Si  tau( 213) = (  35.9188751  35.9188751  20.5250715  )
       214           Si  tau( 214) = (  35.9188751  35.9188751  30.7876073  )
       215           Si  tau( 215) = (  35.9188751  35.9188751   0.0000000  )
       216           Si  tau( 216) = (  35.9188751  35.9188751  10.2625357  )
       217           Si  tau( 217) = (  35.9188751   5.1312679  20.5250715  )
       218           Si  tau( 218) = (  35.9188751   5.1312679  30.7876073  )
       219           Si  tau( 219) = (  35.9188751   5.1312679   0.0000000  )
       220           Si  tau( 220) = (  35.9188751   5.1312679  10.2625357  )
       221           Si  tau( 221) = (  35.9188751  15.3938036  20.5250715  )
       222           Si  tau( 222) = (  35.9188751  15.3938036  30.7876073  )
       223           Si  tau( 223) = (  35.9188751  15.3938036   0.0000000  )
       224           Si  tau( 224) = (  35.9188751  15.3938036  10.2625357  )
       225           Si  tau( 225) = (   5.1312679  25.6563394  20.5250715  )
       226           Si  tau( 226) = (   5.1312679  25.6563394  30.7876073  )
       227           Si  tau( 227) = (   5.1312679  25.6563394   0.0000000  )
       228           Si  tau( 228) = (   5.1312679  25.6563394  10.2625357  )
       229           Si  tau( 229) = (   5.1312679  35.9188751  20.5250715  )
       230           Si  tau( 230) = (   5.1312679  35.9188751  30.7876073  )
       231           Si  tau( 231) = (   5.1312679  35.9188751   0.0000000  )
       232           Si  tau( 232) = (   5.1312679  35.9188751  10.2625357  )
       233           Si  tau( 233) = (   5.1312679   5.1312679  20.5250715  )
       234           Si  tau( 234) = (   5.1312679   5.1312679  30.7876073  )
       235           Si  tau( 235) = (   5.1312679   5.1312679   0.0000000  )
       236           Si  tau( 236) = (   5.1312679   5.1312679  10.2625357  )
       237           Si  tau( 237) = (   5.1312679  15.3938036  20.5250715  )
       238           Si  tau( 238) = (   5.1312679  15.3938036  30.7876073  )
       239           Si  tau( 239) = (   5.1312679  15.3938036   0.0000000  )
       240           Si  tau( 240) = (   5.1312679  15.3938036  10.2625357  )
       241           Si  tau( 241) = (  15.3938036  25.6563394  20.5250715  )
       242           Si  tau( 242) = (  15.3938036  25.6563394  30.7876073  )
       243           Si  tau( 243) = (  15.3938036  25.6563394   0.0000000  )
       244           Si  tau( 244) = (  15.3938036  25.6563394  10.2625357  )
       245           Si  tau( 245) = (  15.3938036  35.9188751  20.5250715  )
       246           Si  tau( 246) = (  15.3938036  35.9188751  30.7876073  )
       247           Si  tau( 247) = (  15.3938036  35.9188751   0.0000000  )
       248           Si  tau( 248) = (  15.3938036  35.9188751  10.2625357  )
       249           Si  tau( 249) = (  15.3938036   5.1312679  20.5250715  )
       250           Si  tau( 250) = (  15.3938036   5.1312679  30.7876073  )
       251           Si  tau( 251) = (  15.3938036   5.1312679   0.0000000  )
       252           Si  tau( 252) = (  15.3938036   5.1312679  10.2625357  )
       253           Si  tau( 253) = (  15.3938036  15.3938036  20.5250715  )
       254           Si  tau( 254) = (  15.3938036  15.3938036  30.7876073  )
       255           Si  tau( 255) = (  15.3938036  15.3938036   0.0000000  )
       256           Si  tau( 256) = (  15.3938036  15.3938036  10.2625357  )
       257           Si  tau( 257) = (  28.2219733  28.2219733  23.0907054  )
       258           Si  tau( 258) = (  28.2219733  28.2219733  33.3532412  )
       259           Si  tau( 259) = (  28.2219733  28.2219733   2.5656339  )
       260           Si  tau( 260) = (  28.2219733  28.2219733  12.8281697  )
       261           Si  tau( 261) = (  28.2219733  38.4845091  23.0907054  )
       262           Si  tau( 262) = (  28.2219733  38.4845091  33.3532412  )
       263           Si  tau( 263) = (  28.2219733  38.4845091   2.5656339  )
       264           Si  tau( 264) = (  28.2219733  38.4845091  12.8281697  )
       265           Si  tau( 265) = (  28.2219733   7.6969018  23.0907054  )
       266           Si  tau( 266) = (  28.2219733   7.6969018  33.3532412  )
       267           Si  tau( 267) = (  28.2219733   7.6969018   2.5656339  )
       268           Si  tau( 268) = (  28.2219733   7.6969018  12.8281697  )
       269           Si  tau( 269) = (  28.2219733  17.9594376  23.0907054  )
       270           Si  tau( 270) = (  28.2219733  17.9594376  33.3532412  )
       271           Si  tau( 271) = (  28.2219733  17.9594376   2.5656339  )
       272           Si  tau( 272) = (  28.2219733  17.9594376  12.8281697  )
       273           Si  tau( 273) = (  38.4845091  28.2219733  23.0907054  )
       274           Si  tau( 274) = (  38.4845091  28.2219733  33.3532412  )
       275           Si  tau( 275) = (  38.4845091  28.2219733   2.5656339  )
       276           Si  tau( 276) = (  38.4845091  28.2219733  12.8281697  )
       277           Si  tau( 277) = (  38.4845091  38.4845091  23.0907054  )
       278           Si  tau( 278) = (  38.4845091  38.4845091  33.3532412  )
       279           Si  tau( 279) = (  38.4845091  38.4845091   2.5656339  )
       280           Si  tau( 280) = (  38.4845091  38.4845091  12.8281697  )
       281           Si  tau( 281) = (  38.4845091   7.6969018  23.0907054  )
       282           Si  tau( 282) = (  38.4845091   7.6969018  33.3532412  )
       283           Si  tau( 283) = (  38.4845091   7.6969018   2.5656339  )
       284           Si  tau( 284) = (  38.4845091   7.6969018  12.8281697  )
       285           Si  tau( 285) = (  38.4845091  17.9594376  23.0907054  )
       286           Si  tau( 286) = (  38.4845091  17.9594376  33.3532412  )
       287           Si  tau( 287) = (  38.4845091  17.9594376   2.5656339  )
       288           Si  tau( 288) = (  38.4845091  17.9594376  12.8281697  )
       289           Si  tau( 289) = (   7.6969018  28.2219733  23.0907054  )
       290           Si  tau( 290) = (   7.6969018  28.2219733  33.3532412  )
       291           Si  tau( 291) = (   7.6969018  28.2219733   2.5656339  )
       292           Si  tau( 292) = (   7.6969018  28.2219733  12.8281697  )
       293           Si  tau( 293) = (   7.6969018  38.4845091  23.0907054  )
       294           Si  tau( 294) = (   7.6969018  38.4845091  33.3532412  )
       295           Si  tau( 295) = (   7.6969018  38.4845091   2.5656339  )
       296           Si  tau( 296) = (   7.6969018  38.4845091  12.8281697  )
       297           Si  tau( 297) = (   7.6969018   7.6969018  23.0907054  )
       298           Si  tau( 298) = (   7.6969018   7.6969018  33.3532412  )
       299           Si  tau( 299) = (   7.6969018   7.6969018   2.5656339  )
       300           Si  tau( 300) = (   7.6969018   7.6969018  12.8281697  )
       301           Si  tau( 301) = (   7.6969018  17.9594376  23.0907054  )
       302           Si  tau( 302) = (   7.6969018  17.9594376  33.3532412  )
       303           Si  tau( 303) = (   7.6969018  17.9594376   2.5656339  )
       304           Si  tau( 304) = (   7.6969018  17.9594376  12.8281697  )
       305           Si  tau( 305) = (  17.9594376  28.2219733  23.0907054  )
       306           Si  tau( 306) = (  17.9594376  28.2219733  33.3532412  )
       307           Si  tau( 307) = (  17.9594376  28.2219733   2.5656339  )
       308           Si  tau( 308) = (  17.9594376  28.2219733  12.8281697  )
       309           Si  tau( 309) = (  17.9594376  38.4845091  23.0907054  )
       310           Si  tau( 310) = (  17.9594376  38.4845091  33.3532412  )
       311           Si  tau( 311) = (  17.9594376  38.4845091   2.5656339  )
       312           Si  tau( 312) = (  17.9594376  38.4845091  12.8281697  )
       313           Si  tau( 313) = (  17.9594376   7.6969018  23.0907054  )
       314           Si  tau( 314) = (  17.9594376   7.6969018  33.3532412  )
       315           Si  tau( 315) = (  17.9594376   7.6969018   2.5656339  )
       316           Si  tau( 316) = (  17.9594376   7.6969018  12.8281697  )
       317           Si  tau( 317) = (  17.9594376  17.9594376  23.0907054  )
       318           Si  tau( 318) = (  17.9594376  17.9594376  33.3532412  )
       319           Si  tau( 319) = (  17.9594376  17.9594376   2.5656339  )
       320           Si  tau( 320) = (  17.9594376  17.9594376  12.8281697  )
       321           Si  tau( 321) = (  28.2219733  23.0907054  28.2219733  )
       322           Si  tau( 322) = (  28.2219733  23.0907054  38.4845091  )
       323           Si  tau( 323) = (  28.2219733  23.0907054   7.6969018  )
       324           Si  tau( 324) = (  28.2219733  23.0907054  17.9594376  )
       325           Si  tau( 325) = (  28.2219733  33.3532412  28.2219733  )
       326           Si  tau( 326) = (  28.2219733  33.3532412  38.4845091  )
       327           Si  tau( 327) = (  28.2219733  33.3532412   7.6969018  )
       328           Si  tau( 328) = (  28.2219733  33.3532412  17.9594376  )
       329           Si  tau( 329) = (  28.2219733   2.5656339  28.2219733  )
       330           Si  tau( 330) = (  28.2219733   2.5656339  38.4845091  )
       331           Si  tau( 331) = (  28.2219733   2.5656339   7.6969018  )
       332           Si  tau( 332) = (  28.2219733   2.5656339  17.9594376  )
       333           Si  tau( 333) = (  28.2219733  12.8281697  28.2219733  )
       334           Si  tau( 334) = (  28.2219733  12.8281697  38.4845091  )
       335           Si  tau( 335) = (  28.2219733  12.8281697   7.6969018  )
       336           Si  tau( 336) = (  28.2219733  12.8281697  17.9594376  )
       337           Si  tau( 337) = (  38.4845091  23.0907054  28.2219733  )
       338           Si  tau( 338) = (  38.4845091  23.0907054  38.4845091  )
       339           Si  tau( 339) = (  38.4845091  23.0907054   7.6969018  )
       340           Si  tau( 340) = (  38.4845091  23.0907054  17.9594376  )
       341           Si  tau( 341) = (  38.4845091  33.3532412  28.2219733  )
       342           Si  tau( 342) = (  38.4845091  33.3532412  38.4845091  )
       343           Si  tau( 343) = (  38.4845091  33.3532412   7.6969018  )
       344           Si  tau( 344) = (  38.4845091  33.3532412  17.9594376  )
       345           Si  tau( 345) = (  38.4845091   2.5656339  28.2219733  )
       346           Si  tau( 346) = (  38.4845091   2.5656339  38.4845091  )
       347           Si  tau( 347) = (  38.4845091   2.5656339   7.6969018  )
       348           Si  tau( 348) = (  38.4845091   2.5656339  17.9594376  )
       349           Si  tau( 349) = (  38.4845091  12.8281697  28.2219733  )
       350           Si  tau( 350) = (  38.4845091  12.8281697  38.4845091  )
       351           Si  tau( 351) = (  38.4845091  12.8281697   7.6969018  )
       352           Si  tau( 352) = (  38.4845091  12.8281697  17.9594376  )
       353           Si  tau( 353) = (   7.6969018  23.0907054  28.2219733  )
       354           Si  tau( 354) = (   7.6969018  23.0907054  38.4845091  )
       355           Si  tau( 355) = (   7.6969018  23.0907054   7.6969018  )
       356           Si  tau( 356) = (   7.6969018  23.0907054  17.9594376  )
       357           Si  tau( 357) = (   7.6969018  33.3532412  28.2219733  )
       358           Si  tau( 358) = (   7.6969018  33.3532412  38.4845091  )
       359           Si  tau( 359) = (   7.6969018  33.3532412   7.6969018  )
       360           Si  tau( 360) = (   7.6969018  33.3532412  17.9594376  )
       361           Si  tau( 361) = (   7.6969018   2.5656339  28.2219733  )
       362           Si  tau( 362) = (   7.6969018   2.5656339  38.4845091  )
       363           Si  tau( 363) = (   7.6969018   2.5656339   7.6969018  )
       364           Si  tau( 364) = (   7.6969018   2.5656339  17.9594376  )
       365           Si  tau( 365) = (   7.6969018  12.8281697  28.2219733  )
       366           Si  tau( 366) = (   7.6969018  12.8281697  38.4845091  )
       367           Si  tau( 367) = (   7.6969018  12.8281697   7.6969018  )
       368           Si  tau( 368) = (   7.6969018  12.8281697  17.9594376  )
       369           Si  tau( 369) = (  17.9594376  23.0907054  28.2219733  )
       370           Si  tau( 370) = (  17.9594376  23.0907054  38.4845091  )
       371           Si  tau( 371) = (  17.9594376  23.0907054   7.6969018  )
       372           Si  tau( 372) = (  17.9594376  23.0907054  17.9594376  )
       373           Si  tau( 373) = (  17.9594376  33.3532412  28.2219733  )
       374           Si  tau( 374) = (  17.9594376  33.3532412  38.4845091  )
       375           Si  tau( 375) = (  17.9594376  33.3532412   7.6969018  )
       376           Si  tau( 376) = (  17.9594376  33.3532412  17.9594376  )
       377           Si  tau( 377) = (  17.9594376   2.5656339  28.2219733  )
       378           Si  tau( 378) = (  17.9594376   2.5656339  38.4845091  )
       379           Si  tau( 379) = (  17.9594376   2.5656339   7.6969018  )
       380           Si  tau( 380) = (  17.9594376   2.5656339  17.9594376  )
       381           Si  tau( 381) = (  17.9594376  12.8281697  28.2219733  )
       382           Si  tau( 382) = (  17.9594376  12.8281697  38.4845091  )
       383           Si  tau( 383) = (  17.9594376  12.8281697   7.6969018  )
       384           Si  tau( 384) = (  17.9594376  12.8281697  17.9594376  )
       385           Si  tau( 385) = (  23.0907054  28.2219733  28.2219733  )
       386           Si  tau( 386) = (  23.0907054  28.2219733  38.4845091  )
       387           Si  tau( 387) = (  23.0907054  28.2219733   7.6969018  )
       388           Si  tau( 388) = (  23.0907054  28.2219733  17.9594376  )
       389           Si  tau( 389) = (  23.0907054  38.4845091  28.2219733  )
       390           Si  tau( 390) = (  23.0907054  38.4845091  38.4845091  )
       391           Si  tau( 391) = (  23.0907054  38.4845091   7.6969018  )
       392           Si  tau( 392) = (  23.0907054  38.4845091  17.9594376  )
       393           Si  tau( 393) = (  23.0907054   7.6969018  28.2219733  )
       394           Si  tau( 394) = (  23.0907054   7.6969018  38.4845091  )
       395           Si  tau( 395) = (  23.0907054   7.6969018   7.6969018  )
       396           Si  tau( 396) = (  23.0907054   7.6969018  17.9594376  )
       397           Si  tau( 397) = (  23.0907054  17.9594376  28.2219733  )
       398           Si  tau( 398) = (  23.0907054  17.9594376  38.4845091  )
       399           Si  tau( 399) = (  23.0907054  17.9594376   7.6969018  )
       400           Si  tau( 400) = (  23.0907054  17.9594376  17.9594376  )
       401           Si  tau( 401) = (  33.3532412  28.2219733  28.2219733  )
       402           Si  tau( 402) = (  33.3532412  28.2219733  38.4845091  )
       403           Si  tau( 403) = (  33.3532412  28.2219733   7.6969018  )
       404           Si  tau( 404) = (  33.3532412  28.2219733  17.9594376  )
       405           Si  tau( 405) = (  33.3532412  38.4845091  28.2219733  )
       406           Si  tau( 406) = (  33.3532412  38.4845091  38.4845091  )
       407           Si  tau( 407) = (  33.3532412  38.4845091   7.6969018  )
       408           Si  tau( 408) = (  33.3532412  38.4845091  17.9594376  )
       409           Si  tau( 409) = (  33.3532412   7.6969018  28.2219733  )
       410           Si  tau( 410) = (  33.3532412   7.6969018  38.4845091  )
       411           Si  tau( 411) = (  33.3532412   7.6969018   7.6969018  )
       412           Si  tau( 412) = (  33.3532412   7.6969018  17.9594376  )
       413           Si  tau( 413) = (  33.3532412  17.9594376  28.2219733  )
       414           Si  tau( 414) = (  33.3532412  17.9594376  38.4845091  )
       415           Si  tau( 415) = (  33.3532412  17.9594376   7.6969018  )
       416           Si  tau( 416) = (  33.3532412  17.9594376  17.9594376  )
       417           Si  tau( 417) = (   2.5656339  28.2219733  28.2219733  )
       418           Si  tau( 418) = (   2.5656339  28.2219733  38.4845091  )
       419           Si  tau( 419) = (   2.5656339  28.2219733   7.6969018  )
       420           Si  tau( 420) = (   2.5656339  28.2219733  17.9594376  )
       421           Si  tau( 421) = (   2.5656339  38.4845091  28.2219733  )
       422           Si  tau( 422) = (   2.5656339  38.4845091  38.4845091  )
       423           Si  tau( 423) = (   2.5656339  38.4845091   7.6969018  )
       424           Si  tau( 424) = (   2.5656339  38.4845091  17.9594376  )
       425           Si  tau( 425) = (   2.5656339   7.6969018  28.2219733  )
       426           Si  tau( 426) = (   2.5656339   7.6969018  38.4845091  )
       427           Si  tau( 427) = (   2.5656339   7.6969018   7.6969018  )
       428           Si  tau( 428) = (   2.5656339   7.6969018  17.9594376  )
       429           Si  tau( 429) = (   2.5656339  17.9594376  28.2219733  )
       430           Si  tau( 430) = (   2.5656339  17.9594376  38.4845091  )
       431           Si  tau( 431) = (   2.5656339  17.9594376   7.6969018  )
       432           Si  tau( 432) = (   2.5656339  17.9594376  17.9594376  )
       433           Si  tau( 433) = (  12.8281697  28.2219733  28.2219733  )
       434           Si  tau( 434) = (  12.8281697  28.2219733  38.4845091  )
       435           Si  tau( 435) = (  12.8281697  28.2219733   7.6969018  )
       436           Si  tau( 436) = (  12.8281697  28.2219733  17.9594376  )
       437           Si  tau( 437) = (  12.8281697  38.4845091  28.2219733  )
       438           Si  tau( 438) = (  12.8281697  38.4845091  38.4845091  )
       439           Si  tau( 439) = (  12.8281697  38.4845091   7.6969018  )
       440           Si  tau( 440) = (  12.8281697  38.4845091  17.9594376  )
       441           Si  tau( 441) = (  12.8281697   7.6969018  28.2219733  )
       442           Si  tau( 442) = (  12.8281697   7.6969018  38.4845091  )
       443           Si  tau( 443) = (  12.8281697   7.6969018   7.6969018  )
       444           Si  tau( 444) = (  12.8281697   7.6969018  17.9594376  )
       445           Si  tau( 445) = (  12.8281697  17.9594376  28.2219733  )
       446           Si  tau( 446) = (  12.8281697  17.9594376  38.4845091  )
       447           Si  tau( 447) = (  12.8281697  17.9594376   7.6969018  )
       448           Si  tau( 448) = (  12.8281697  17.9594376  17.9594376  )
       449           Si  tau( 449) = (  23.0907054  23.0907054  23.0907054  )
       450           Si  tau( 450) = (  23.0907054  23.0907054  33.3532412  )
       451           Si  tau( 451) = (  23.0907054  23.0907054   2.5656339  )
       452           Si  tau( 452) = (  23.0907054  23.0907054  12.8281697  )
       453           Si  tau( 453) = (  23.0907054  33.3532412  23.0907054  )
       454           Si  tau( 454) = (  23.0907054  33.3532412  33.3532412  )
       455           Si  tau( 455) = (  23.0907054  33.3532412   2.5656339  )
       456           Si  tau( 456) = (  23.0907054  33.3532412  12.8281697  )
       457           Si  tau( 457) = (  23.0907054   2.5656339  23.0907054  )
       458           Si  tau( 458) = (  23.0907054   2.5656339  33.3532412  )
       459           Si  tau( 459) = (  23.0907054   2.5656339   2.5656339  )
       460           Si  tau( 460) = (  23.0907054   2.5656339  12.8281697  )
       461           Si  tau( 461) = (  23.0907054  12.8281697  23.0907054  )
       462           Si  tau( 462) = (  23.0907054  12.8281697  33.3532412  )
       463           Si  tau( 463) = (  23.0907054  12.8281697   2.5656339  )
       464           Si  tau( 464) = (  23.0907054  12.8281697  12.8281697  )
       465           Si  tau( 465) = (  33.3532412  23.0907054  23.0907054  )
       466           Si  tau( 466) = (  33.3532412  23.0907054  33.3532412  )
       467           Si  tau( 467) = (  33.3532412  23.0907054   2.5656339  )
       468           Si  tau( 468) = (  33.3532412  23.0907054  12.8281697  )
       469           Si  tau( 469) = (  33.3532412  33.3532412  23.0907054  )
       470           Si  tau( 470) = (  33.3532412  33.3532412  33.3532412  )
       471           Si  tau( 471) = (  33.3532412  33.3532412   2.5656339  )
       472           Si  tau( 472) = (  33.3532412  33.3532412  12.8281697  )
       473           Si  tau( 473) = (  33.3532412   2.5656339  23.0907054  )
       474           Si  tau( 474) = (  33.3532412   2.5656339  33.3532412  )
       475           Si  tau( 475) = (  33.3532412   2.5656339   2.5656339  )
       476           Si  tau( 476) = (  33.3532412   2.5656339  12.8281697  )
       477           Si  tau( 477) = (  33.3532412  12.8281697  23.0907054  )
       478           Si  tau( 478) = (  33.3532412  12.8281697  33.3532412  )
       479           Si  tau( 479) = (  33.3532412  12.8281697   2.5656339  )
       480           Si  tau( 480) = (  33.3532412  12.8281697  12.8281697  )
       481           Si  tau( 481) = (   2.5656339  23.0907054  23.0907054  )
       482           Si  tau( 482) = (   2.5656339  23.0907054  33.3532412  )
       483           Si  tau( 483) = (   2.5656339  23.0907054   2.5656339  )
       484           Si  tau( 484) = (   2.5656339  23.0907054  12.8281697  )
       485           Si  tau( 485) = (   2.5656339  33.3532412  23.0907054  )
       486           Si  tau( 486) = (   2.5656339  33.3532412  33.3532412  )
       487           Si  tau( 487) = (   2.5656339  33.3532412   2.5656339  )
       488           Si  tau( 488) = (   2.5656339  33.3532412  12.8281697  )
       489           Si  tau( 489) = (   2.5656339   2.5656339  23.0907054  )
       490           Si  tau( 490) = (   2.5656339   2.5656339  33.3532412  )
       491           Si  tau( 491) = (   2.5656339   2.5656339   2.5656339  )
       492           Si  tau( 492) = (   2.5656339   2.5656339  12.8281697  )
       493           Si  tau( 493) = (   2.5656339  12.8281697  23.0907054  )
       494           Si  tau( 494) = (   2.5656339  12.8281697  33.3532412  )
       495           Si  tau( 495) = (   2.5656339  12.8281697   2.5656339  )
       496           Si  tau( 496) = (   2.5656339  12.8281697  12.8281697  )
       497           Si  tau( 497) = (  12.8281697  23.0907054  23.0907054  )
       498           Si  tau( 498) = (  12.8281697  23.0907054  33.3532412  )
       499           Si  tau( 499) = (  12.8281697  23.0907054   2.5656339  )
       500           Si  tau( 500) = (  12.8281697  23.0907054  12.8281697  )
       501           Si  tau( 501) = (  12.8281697  33.3532412  23.0907054  )
       502           Si  tau( 502) = (  12.8281697  33.3532412  33.3532412  )
       503           Si  tau( 503) = (  12.8281697  33.3532412   2.5656339  )
       504           Si  tau( 504) = (  12.8281697  33.3532412  12.8281697  )
       505           Si  tau( 505) = (  12.8281697   2.5656339  23.0907054  )
       506           Si  tau( 506) = (  12.8281697   2.5656339  33.3532412  )
       507           Si  tau( 507) = (  12.8281697   2.5656339   2.5656339  )
       508           Si  tau( 508) = (  12.8281697   2.5656339  12.8281697  )
       509           Si  tau( 509) = (  12.8281697  12.8281697  23.0907054  )
       510           Si  tau( 510) = (  12.8281697  12.8281697  33.3532412  )
       511           Si  tau( 511) = (  12.8281697  12.8281697   2.5656339  )
       512           Si  tau( 512) = (  12.8281697  12.8281697  12.8281697  )

     number of k points=     1  Gaussian smearing, width (Ry)=  0.0010
                       cart. coord. in units 2pi/alat
        k(    1) = (   0.0000000   0.0000000   0.0000000), wk =   2.0000000

     Dense  grid:  8583411 G-vectors     FFT dimensions: ( 324, 324, 324)

     Smooth grid:  1182051 G-vectors     FFT dimensions: ( 180, 180, 180)

     Estimated max dynamical RAM per process >       1.85 GB

     Estimated total dynamical RAM >     118.58 GB

     Initial potential from superposition of free atoms

     total cpu time spent up to now is       17.5 secs

     Self-consistent Calculation

     iteration #  1     ecut=    40.00 Ry     beta= 0.70

     Threshold (ethr) on eigenvalues was too large:
     Diagonalizing with lowered threshold


     total cpu time spent up to now is       41.7 secs

     total energy              =   -5126.82650022 Ry
     estimated scf accuracy    <      14.53670607 Ry
 
     Band energy sum           =      64.99726592 Ry

     iteration #  2     ecut=    40.00 Ry     beta= 0.70

     total cpu time spent up to now is       57.1 secs

     total energy              =   -5127.96197500 Ry
     estimated scf accuracy    <       0.54906030 Ry
 
     Band energy sum           =     124.50834083 Ry

     iteration #  3     ecut=    40.00 Ry     beta= 0.70

     total cpu time spent up to now is       90.4 secs

     total energy              =   -5128.12959209 Ry
     estimated scf accuracy    <       0.03058297 Ry
 
     Band energy sum           =     130.73307386 Ry

     iteration #  4     ecut=    40.00 Ry     beta= 0.70

     total cpu time spent up to now is      120.5 secs

     total energy              =   -5128.09312089 Ry
     estimated scf accuracy    <       0.54199325 Ry
 
     Band energy sum           =     126.98770229 Ry

     iteration #  5     ecut=    40.00 Ry     beta= 0.70

     total cpu time spent up to now is      143.2 secs

     total energy              =   -5128.14635715 Ry
     estimated scf accuracy    <       0.02678411 Ry
 
     Band energy sum           =     127.50354988 Ry

     iteration #  6     ecut=    40.00 Ry     beta= 0.70

     total cpu time spent up to now is      157.2 secs

     total energy              =   -5128.14914646 Ry
     estimated scf accuracy    <       0.00375888 Ry
 
     Band energy sum           =     127.79203926 Ry

     iteration #  7     ecut=    40.00 Ry     beta= 0.70

     total cpu time spent up to now is      171.0 secs

     total energy              =   -5128.14950333 Ry
     estimated scf accuracy    <       0.00084056 Ry
 
     Band energy sum           =     128.02607999 Ry

     iteration #  8     ecut=    40.00 Ry     beta= 0.70

     total cpu time spent up to now is      185.0 secs

     total energy              =   -5128.14958332 Ry
     estimated scf accuracy    <       0.00013006 Ry
 
     Band energy sum           =     128.20610566 Ry

     iteration #  9     ecut=    40.00 Ry     beta= 0.70

     total cpu time spent up to now is      200.0 secs

     total energy              =   -5128.14960460 Ry
     estimated scf accuracy    <       0.00001916 Ry
 
     Band energy sum           =     128.30357552 Ry

     iteration # 10     ecut=    40.00 Ry     beta= 0.70

     total cpu time spent up to now is      215.1 secs

     total energy              =   -5128.14960884 Ry
     estimated scf accuracy    <       0.00000355 Ry
 
     Band energy sum           =     128.33692196 Ry

     iteration # 11     ecut=    40.00 Ry     beta= 0.70

     total cpu time spent up to now is      230.1 secs

     total energy              =   -5128.14960950 Ry
     estimated scf accuracy    <       0.00000204 Ry
 
     Band energy sum           =     128.31946722 Ry

     iteration # 12     ecut=    40.00 Ry     beta= 0.70

     total cpu time spent up to now is      243.6 secs

     total energy              =   -5128.14960976 Ry
     estimated scf accuracy    <       0.00000087 Ry
 
     Band energy sum           =     128.32636604 Ry

     iteration # 13     ecut=    40.00 Ry     beta= 0.70

     total cpu time spent up to now is      257.2 secs

     total energy              =   -5128.14960986 Ry
     estimated scf accuracy    <       0.00000039 Ry
 
     Band energy sum           =     128.32674906 Ry

     iteration # 14     ecut=    40.00 Ry     beta= 0.70

     total cpu time spent up to now is      269.8 secs

     total energy              =   -5128.14960990 Ry
     estimated scf accuracy    <       0.00000006 Ry
 
     Band energy sum           =     128.32715961 Ry

     iteration # 15     ecut=    40.00 Ry     beta= 0.70

     total cpu time spent up to now is      282.6 secs

     total energy              =   -5128.14960991 Ry
     estimated scf accuracy    <       0.00000007 Ry
 
     Band energy sum           =     128.32664726 Ry

     iteration # 16     ecut=    40.00 Ry     beta= 0.70

     total cpu time spent up to now is      292.0 secs

     total energy              =   -5128.14960992 Ry
     estimated scf accuracy    <       0.00000001 Ry
 
     Band energy sum           =     128.32670892 Ry

     iteration # 17     ecut=    40.00 Ry     beta= 0.70

     total cpu time spent up to now is      300.6 secs

     total energy              =   -5128.14960992 Ry
     estimated scf accuracy    <          9.0E-10 Ry
 
     Band energy sum           =     128.32673619 Ry

     iteration # 18     ecut=    40.00 Ry     beta= 0.70

     total cpu time spent up to now is      309.0 secs

     total energy              =   -5128.14960992 Ry
     estimated scf accuracy    <          4.1E-10 Ry
 
     Band energy sum           =     128.32670548 Ry

     iteration # 19     ecut=    40.00 Ry     beta= 0.70

     total cpu time spent up to now is      318.0 secs

     total energy              =   -5128.14960992 Ry
     estimated scf accuracy    <          2.3E-10 Ry
 
     Band energy sum           =     128.32667821 Ry

     iteration # 20     ecut=    40.00 Ry     beta= 0.70

     total cpu time spent up to now is      326.4 secs

     End of self-consistent calculation

          k = 0.0000 0.0000 0.0000 (147954 PWs)   bands (ev):

   -18.3118 -18.3118 -18.3118 -18.2816 -18.2816  -5.9524  -5.7031  -5.6750
    -5.6750  -5.6750  -5.6749  -5.6749  -5.4554  -5.4078  -5.4078  -5.4078
    -5.4075  -5.4075  -5.4075  -5.4075  -5.4075  -5.4075  -5.4075  -5.4075
    -5.1772  -5.1482  -5.1482  -5.1482  -5.1480  -5.1479  -5.1479  -5.1479
    -4.8936  -4.8663  -4.8663  -4.8663  -4.8661  -4.8661  -4.7049  -4.6194
    -4.6194  -4.6194  -4.6184  -4.6184  -4.6184  -4.6184  -4.6184  -4.6184
    -4.6184  -4.6184  -4.6183  -4.6183  -4.6183  -4.6183  -4.6183  -4.6183
    -4.6183  -4.6183  -4.6183  -4.6182  -4.6182  -4.6182  -4.4473  -4.3916
    -4.3916  -4.3916  -4.3906  -4.3906  -4.3906  -4.3906  -4.3906  -4.3906
    -4.3906  -4.3906  -4.3906  -4.3905  -4.3905  -4.3905  -4.3905  -4.3905
    -4.3905  -4.3905  -4.3905  -4.3905  -4.3905  -4.3905  -3.9577  -3.9036
    -3.9036  -3.9036  -3.9030  -3.9030  -3.9030  -3.9030  -3.9030  -3.9030
    -3.9030  -3.9030  -3.8270  -3.7726  -3.7725  -3.7725  -3.7717  -3.7717
    -3.7717  -3.7717  -3.7717  -3.7717  -3.7717  -3.7717  -3.7717  -3.7717
    -3.7717  -3.7717  -3.7717  -3.7717  -3.7717  -3.7717  -3.7717  -3.7716
    -3.7716  -3.7716  -3.6233  -3.6112  -3.6112  -3.6112  -3.5672  -3.5545
    -3.5545  -3.5545  -3.5541  -3.5541  -3.4198  -3.3561  -3.3561  -3.3561
    -3.3547  -3.3547  -3.3547  -3.3547  -3.3547  -3.3547  -3.3547  -3.3547
    -3.3547  -3.3547  -3.3546  -3.3546  -3.3546  -3.3546  -3.3546  -3.3546
    -3.3546  -3.3546  -3.3546  -3.3546  -3.2676  -3.2293  -3.2293  -3.2293
    -3.2282  -3.2282  -3.2282  -3.2282  -3.2282  -3.2282  -3.2282  -3.2282
    -3.2282  -3.2282  -3.2282  -3.2282  -3.2281  -3.2281  -3.2281  -3.2281
    -3.2281  -3.2281  -3.2281  -3.2281  -3.1096  -3.0742  -3.0742  -3.0742
    -3.0737  -3.0737  -3.0737  -3.0737  -3.0737  -3.0736  -3.0736  -3.0736
    -3.0736  -3.0736  -3.0736  -3.0736  -3.0736  -3.0736  -3.0736  -3.0736
    -3.0736  -3.0736  -3.0736  -3.0736  -2.8640  -2.8294  -2.8294  -2.8294
    -2.8286  -2.8286  -2.8286  -2.8284  -2.8284  -2.8284  -2.8284  -2.8284
    -2.8284  -2.8284  -2.8284  -2.8284  -2.8284  -2.8284  -2.8284  -2.8284
    -2.8284  -2.8284  -2.8284  -2.8284  -2.2393  -2.2149  -2.2149  -2.2149
    -2.2147  -2.2147  -2.2147  -2.2146  -2.2146  -2.2146  -2.2145  -2.2145
    -1.8283  -1.8062  -1.8062  -1.8062  -1.8058  -1.8058  -1.7666  -1.7277
    -1.7277  -1.7277  -1.7265  -1.7265  -1.7265  -1.7265  -1.7265  -1.7265
    -1.7264  -1.7264  -1.7264  -1.7264  -1.7264  -1.7264  -1.7264  -1.7264
    -1.7264  -1.7264  -1.7264  -1.7264  -1.7264  -1.7264  -1.6529  -1.6393
    -1.6393  -1.6393  -1.6390  -1.6390  -1.6390  -1.6389  -1.6389  -1.6389
    -1.6389  -1.6389  -1.2379  -1.2183  -1.2183  -1.2183  -1.2177  -1.2177
    -1.2177  -1.2176  -1.2176  -1.2176  -1.2176  -1.2176  -0.9823  -0.9786
    -0.9786  -0.9786  -0.8216  -0.7900  -0.7900  -0.7900  -0.7875  -0.7875
    -0.7875  -0.7875  -0.7875  -0.7874  -0.7874  -0.7874  -0.7874  -0.7874
    -0.7874  -0.7874  -0.7874  -0.7874  -0.7874  -0.7874  -0.7874  -0.7873
    -0.7873  -0.7873  -0.6022  -0.5614  -0.5614  -0.5614  -0.5605  -0.5605
    -0.5605  -0.5604  -0.5604  -0.5604  -0.5604  -0.5604  -0.5603  -0.5603
    -0.5603  -0.5603  -0.5603  -0.5603  -0.5603  -0.5603  -0.5603  -0.5602
    -0.5602  -0.5602  -0.4238  -0.3853  -0.3853  -0.3853  -0.3818  -0.3817
    -0.3817  -0.3817  -0.3816  -0.3816  -0.3816  -0.3816  -0.3816  -0.3816
    -0.3816  -0.3816  -0.3816  -0.3816  -0.3816  -0.3816  -0.3816  -0.3814
    -0.3814  -0.3814  -0.3804  -0.3795  -0.3795  -0.3795  -0.3790  -0.3790
    -0.3790  -0.3789  -0.3789  -0.3789  -0.3789  -0.3789  -0.3789  -0.3789
    -0.3789  -0.3789  -0.3788  -0.3788  -0.3788  -0.3788  -0.3788  -0.3786
    -0.3786  -0.3786   0.0115   0.0435   0.0435   0.0435   0.0440   0.0440
     0.0440   0.0441   0.0441   0.0441   0.0441   0.0441   0.0441   0.0441
     0.0441   0.0441   0.0441   0.0441   0.0441   0.0441   0.0441   0.0443
     0.0443   0.0443   0.2541   0.2616   0.2616   0.2616   0.2617   0.2617
     0.5091   0.5232   0.5232   0.5232   0.5236   0.5236   0.5236   0.5238
     0.5238   0.5241   0.5241   0.5241   0.6933   0.7110   0.7110   0.7110
     0.7127   0.7129   0.7129   0.7129   0.7129   0.7129   0.7129   0.7129
     0.7129   0.7129   0.7129   0.7129   0.7129   0.7129   0.7129   0.7130
     0.7130   0.7137   0.7137   0.7137   1.6829   1.6829   1.6829   1.6833
     1.6844   1.6844   1.6844   1.6844   1.6844   1.6844   1.6845   1.6847
     1.6847   1.7116   1.7116   1.7116   1.7122   1.7122   1.7122   1.7122
     1.7122   1.7123   1.7123   1.7123   1.7123   1.7123   1.7123   1.7123
     1.7123   1.7123   1.7123   1.7124   1.7124   1.7136   1.7136   1.7136
     1.7565   1.7565   1.7565   1.7583   1.7591   1.7591   1.7591   1.7591
     1.7591   1.7591   1.7592   1.7592   1.7592   1.7592   1.7592   1.7592
     1.7592   1.7592   1.7593   1.7594   1.7594   1.7594   1.7597   1.7597
     2.0631   2.0687   2.0687   2.0687   2.0691   2.0697   2.0697   2.0697
     2.1363   2.1363   2.1363   2.1374   2.1374   2.1374   2.1375   2.1375
     2.1375   2.1375   2.1379   2.1379   2.2349   2.2352   2.2352   2.2352
     2.2363   2.2363   2.2363   2.2366   2.2366   2.2367   2.2367   2.2367
     2.4507   2.4560   2.4560   2.4560   2.4578   2.4578   2.4578   2.4578
     2.4578   2.4578   2.4579   2.4579   2.4579   2.4579   2.4579   2.4579
     2.4579   2.4579   2.4579   2.4585   2.4585   2.4585   2.4586   2.4586
     2.4758   2.4824   2.4824   2.4828   2.4828   2.4828   2.5371   2.5418
     2.5418   2.5418   2.5433   2.5433   2.5433   2.5435   2.5435   2.5435
     2.5435   2.5435   2.5435   2.5435   2.5435   2.5435   2.5435   2.5435
     2.5435   2.5440   2.5440   2.5442   2.5442   2.5442   2.5798   2.5798
     2.5798   2.5811   2.5811   2.5811   2.5813   2.5817   2.5817   2.5817
     2.5817   2.5817   2.5817   2.5817   2.5817   2.5817   2.5817   2.5817
     2.5817   2.5820   2.5820   2.5820   2.5823   2.5823   2.6326   2.6326
     2.6326   2.6329   2.6340   2.6340   2.6340   2.6344   2.6344   2.6344
     2.6344   2.6344   2.6344   2.6345   2.6345   2.6345   2.6345   2.6345
     2.6346   2.6349   2.6349   2.6352   2.6352   2.6352   3.1619   3.1619
     3.1619   3.1619   3.1619   3.1619   3.2434   3.2434   3.2434   3.2442
     3.2442   3.2442   3.2446   3.2446   3.2446   3.2446   3.2447   3.2447
     3.2447   3.2447   3.2447   3.2448   3.2448   3.2448   3.2448   3.2453
     3.2453   3.2453   3.2456   3.2456   3.2813   3.2831   3.2831   3.2831
     3.2844   3.2844   3.2844   3.2846   3.2846   3.2846   3.2846   3.2846
     3.2846   3.2846   3.2846   3.2846   3.2846   3.2846   3.2847   3.2849
     3.2849   3.2861   3.2861   3.2861   3.3052   3.3146   3.3146   3.3146
     3.3148   3.3148   3.3148   3.3148   3.3148   3.3163   3.3163   3.3163
     3.4070   3.4070   3.4070   3.4071   3.4071   3.4071   3.4076   3.4076
     3.4076   3.4080   3.4080   3.4080   3.4184   3.4184   3.4184   3.4187
     3.4189   3.4189   3.4189   3.4193   3.4193   3.4193   3.4193   3.4194
     3.4194   3.4194   3.4194   3.4194   3.4194   3.4194   3.4194   3.4199
     3.4199   3.4199   3.4204   3.4204   3.5313   3.5370   3.5370   3.5370
     3.5374   3.5374   3.5374   3.5378   3.5378   3.5378   3.5378   3.5378
     3.5378   3.5378   3.5379   3.5379   3.5379   3.5379   3.5379   3.5383
     3.5383   3.5395   3.5395   3.5395   3.5894   3.5894   3.5894   3.5897
     3.5897   3.5897   3.5899   3.5899   3.5899   3.5899   3.5901   3.5901
     3.8092   3.8092   3.8092   3.8095   3.8095   3.8095   3.8100   3.8100
     3.8100   3.8100   3.8101   3.8101   3.8101   3.8101   3.8101   3.8101
     3.8101   3.8101   3.8101   3.8104   3.8104   3.8108   3.8108   3.8108
     3.8489   3.8489   3.8489   3.8489   3.8489   3.8489   3.8493   3.8494
     3.8494   3.8494   3.8494   3.8494   3.8494   3.8495   3.8495   3.8495
     3.8495   3.8495   3.8495   3.8503   3.8503   3.8503   3.8505   3.8505
     4.1233   4.1233   4.1233   4.1235   4.1235   4.1235   4.1237   4.1237
     4.1237   4.1247   4.1247   4.1247   4.1588   4.1659   4.1659   4.1659
     4.1661   4.1661   4.1661   4.1662   4.1663   4.1663   4.1663   4.1663
     4.1663   4.1664   4.1664   4.1664   4.1664   4.1664   4.1664   4.1669
     4.1669   4.1686   4.1686   4.1686   4.3734   4.3739   4.3739   4.3739
     4.3743   4.3743   4.3743   4.3744   4.3744   4.3758   4.3758   4.3758
     4.4280   4.4280   4.4280   4.4281   4.4281   4.4281   4.4286   4.4286
     4.4286   4.4286   4.4286   4.4286   4.4286   4.4286   4.4286   4.4286
     4.4286   4.4286   4.4287   4.4289   4.4289   4.4310   4.4310   4.4310
     4.5823   4.5837   4.5837   4.5837   4.5838   4.5838   4.5838   4.5839
     4.5839   4.5839   4.5840   4.5840   4.5840   4.5840   4.5840   4.5841
     4.5841   4.5841   4.5841   4.5848   4.5848   4.5864   4.5864   4.5864
     4.6579   4.6628   4.6628   4.6639   4.6639   4.6639   4.6889   4.6889
     4.6889   4.6892   4.6892   4.6892   4.6892   4.6896   4.6896   4.6901
     4.6901   4.6901   4.7513   4.7513   4.7513   4.7521   4.7521   4.7521
     4.7521   4.7521   4.7521   4.7521   4.7521   4.7521   4.7521   4.7521
     4.7521   4.7521   4.7521   4.7521   4.7521   4.7527   4.7527   4.7542
     4.7542   4.7542   4.8196   4.8196   4.8196   4.8200   4.8200   4.8207
     4.8207   4.8207   5.2067   5.2067   5.2067   5.2068   5.2068   5.2068
     5.2069   5.2069   5.2069   5.2091   5.2091   5.2091   5.2565   5.2565
     5.2565   5.2566   5.2566   5.2566   5.2567   5.2567   5.2568   5.2568
     5.2568   5.2569   5.2569   5.2598   5.2598   5.2598   5.7252   5.7252
     5.7252   5.7252   5.7252   5.7252   5.7253   5.7254   5.7254   5.7280
     5.7280   5.7280   6.0175   6.0175   6.0175   6.5317   6.5357   6.5357
     6.5362   6.5362   6.5362   6.6221   6.6262   6.6262   6.6262   6.6263
     6.6263   7.0584   7.0618   7.0618   7.0627   7.0627   7.0627   7.1172
     7.1229   7.1229   7.1229   7.1231   7.1231   7.1231   7.1257   7.1257
     7.1257   7.1261   7.1261   7.4214   7.4379   7.4379   7.4379   7.4407
     7.4442   7.4442   7.4442   7.4444   7.4445   7.4445   7.4445   7.4445
     7.4445   7.4446   7.4446   7.4446   7.4446   7.4446   7.4446   7.4447
     7.4447   7.4447   7.4492   7.4492   7.4495   7.4495   7.4495   7.4551
     7.4582   7.4582   7.4582   7.4599   7.4599   7.8673   7.8824   7.8824
     7.8824   7.8828   7.8828   7.8828   7.8829   7.8829   7.8829   7.8829
     7.8829   7.8829   7.8830   7.8830   7.8830   7.8835   7.8835   7.8835
     7.8854   7.8854   7.8870   7.8870   7.8870   7.8938   7.8996   7.8996
     7.8996   7.9000   7.9000   7.9000   7.9001   7.9001   7.9001   7.9001
     7.9001   7.9001   7.9001   7.9001   7.9001   7.9006   7.9006   7.9006
     7.9063   7.9063   7.9068   7.9068   7.9068   7.9289   7.9369   7.9374
     7.9374   7.9374   7.9397   7.9397   7.9397   7.9661   7.9673   7.9673
     7.9690   7.9690   7.9690   8.1630   8.1791   8.1796   8.1796   8.1796
     8.1797   8.1797   8.1797   8.1798   8.1798   8.1798   8.1798   8.1798
     8.1799   8.1799   8.1799   8.1804   8.1804   8.1804   8.1836   8.1836
     8.1853   8.1853   8.1853   8.2636   8.2846   8.2846   8.2846   8.2848
     8.2848   8.2848   8.2849   8.2849   8.2849   8.2849   8.2849   8.2849
     8.2849   8.2849   8.2849   8.2853   8.2853   8.2853   8.2874   8.2874
     8.2908   8.2908   8.2908   8.3765   8.3829   8.3829   8.3829   8.3833
     8.3833   8.3834   8.3850   8.3850   8.3850   8.3856   8.3856   8.3907
     8.3937   8.3938   8.3938   8.3940   8.3940   8.3940   8.3941   8.3941
     8.3941   8.3942   8.3942   8.3950   8.3950   8.3950   8.3965   8.3965
     8.4027   8.4027   8.4027

     the Fermi energy is     6.3386 ev

!    total energy              =   -5128.14960992 Ry
     estimated scf accuracy    <          5.9E-11 Ry
     smearing contrib. (-TS)   =      -0.00000000 Ry
     internal energy E=F+TS    =   -5128.14960992 Ry

     The total energy is F=E-TS. E is the sum of the following terms:
     one-electron contribution =    1072.71930153 Ry
     hartree contribution      =     404.47264687 Ry
     xc contribution           =   -2256.46259259 Ry
     ewald contribution        =   -4348.87896572 Ry
 
     Band energy sum           =     128.32668222 Ry

     convergence has been achieved in  20 iterations
 
     evp_work_count :  1640.081558
 
     init_run     :    103.23s CPU     17.10s WALL (       1 calls)
     electrons    :   2556.50s CPU    308.94s WALL (       1 calls)

     Called by init_run:
     potinit      :      5.11s CPU      0.76s WALL (       1 calls)
     hinit0       :      2.59s CPU      0.29s WALL (       1 calls)

     Called by electrons:
     c_bands      :   1963.48s CPU    218.36s WALL (      21 calls)
     sum_band     :    370.65s CPU     48.60s WALL (      21 calls)
     v_of_rho     :      5.54s CPU      0.62s WALL (      21 calls)
     mix_rho      :      6.42s CPU      0.72s WALL (      21 calls)

     Called by c_bands:

     Called by sum_band:

     Called by *egterg:

     Called by h_psi:

     General routines
     fft          :     27.60s CPU      3.16s WALL (     125 calls)
     ffts         :      0.36s CPU      0.05s WALL (      21 calls)
     interpolate  :      5.01s CPU      0.58s WALL (      21 calls)
 
     Parallel routines
     fft_scatt_xy :      0.32s CPU      0.03s WALL (     146 calls)
     fft_scatt_yz :     26.20s CPU      2.98s WALL (     146 calls)
 
     PWSCF        :  44m27.29s CPU   5m30.14s WALL

 
   This run was terminated on:  14:17:52  10Mar2020            

=------------------------------------------------------------------------------=
   JOB DONE.
=------------------------------------------------------------------------------=
========================================================================================================================================================
                                                                         #         Total          %   Parent %        Median           Min           Max
--------------------------------------------------------------------------------------------------------------------------------------------------------
sirius                                                                   1      330.19 s     100.00     100.00      330.19 s      330.19 s      330.19 s
 |- sirius::initialize                                                   1      45.04 ms       0.01       0.01      45.04 ms      45.04 ms      45.04 ms
 |- qe|setup                                                             1      86.73 ms       0.03       0.03      86.73 ms      86.73 ms      86.73 ms
 |- qe|init_run                                                          1       17.10 s       5.18       5.18       17.10 s       17.10 s       17.10 s
 | |- qe|init_run|setup_sirius                                           1        6.87 s       2.08      40.17        6.87 s        6.87 s        6.87 s
 | | |- sirius::Simulation_context::initialize                           1        6.48 s       1.96      94.28        6.48 s        6.48 s        6.48 s
 | | | |- sirius::Simulation_context::init_comm                          1     950.89 us       0.00       0.01     950.89 us     950.89 us     950.89 us
 | | | |- sirius::Unit_cell::initialize                                  1     266.72 ms       0.08       4.12     266.72 ms     266.72 ms     266.72 ms
 | | | | |- sirius::Atom_type::init                                      2      60.04 us       0.00       0.02      30.02 us       5.95 us      54.10 us
 | | | | |- sirius::Unit_cell::update                                    1     266.15 ms       0.08      99.78     266.15 ms     266.15 ms     266.15 ms
 | | | | | |- sirius::Unit_cell::find_nearest_neighbours                 1     254.27 ms       0.08      95.54     254.27 ms     254.27 ms     254.27 ms
 | | | | | |- sirius::Unit_cell::get_symmetry                            1      11.85 ms       0.00       4.45      11.85 ms      11.85 ms      11.85 ms
 | | | | | | |- sirius::Unit_cell_symmetry                               1       6.01 ms       0.00      50.69       6.01 ms       6.01 ms       6.01 ms
 | | | | | | | |- sirius::Unit_cell_symmetry|spg                         1       1.02 us       0.00       0.02       1.02 us       1.02 us       1.02 us
 | | | | | | | |- sirius::Unit_cell_symmetry|equiv                       1       5.94 ms       0.00      98.96       5.94 ms       5.94 ms       5.94 ms
 | | | | | | | |- sirius::Unit_cell_symmetry|mag                         1      23.53 us       0.00       0.39      23.53 us      23.53 us      23.53 us
 | | | |
 | | | |- sirius::Simulation_context::update                             1        6.12 s       1.85      94.45        6.12 s        6.12 s        6.12 s
 | | | | |- sirius::Unit_cell::update                                    1     264.89 ms       0.08       4.33     264.89 ms     264.89 ms     264.89 ms
 | | | | | |- sirius::Unit_cell::find_nearest_neighbours                 1     253.67 ms       0.08      95.76     253.67 ms     253.67 ms     253.67 ms
 | | | | | |- sirius::Unit_cell::get_symmetry                            1      11.20 ms       0.00       4.23      11.20 ms      11.20 ms      11.20 ms
 | | | | | | |- sirius::Unit_cell_symmetry                               1       5.91 ms       0.00      52.77       5.91 ms       5.91 ms       5.91 ms
 | | | | | | | |- sirius::Unit_cell_symmetry|spg                         1     550.00 ns       0.00       0.01     550.00 ns     550.00 ns     550.00 ns
 | | | | | | | |- sirius::Unit_cell_symmetry|equiv                       1       5.88 ms       0.00      99.47       5.88 ms       5.88 ms       5.88 ms
 | | | | | | | |- sirius::Unit_cell_symmetry|mag                         1      20.81 us       0.00       0.35      20.81 us      20.81 us      20.81 us
 | | | | |
 | | | | |- sirius::Radial_integrals|rho_core_pseudo                     2       1.79 us       0.00       0.00     897.50 ns     315.00 ns       1.48 us
 | | | | |- sirius::Radial_integrals|rho_pseudo                          1      54.78 ms       0.02       0.90      54.78 ms      54.78 ms      54.78 ms
 | | | | |- sirius::Radial_integrals|vloc                                2       1.84 us       0.00       0.00     919.50 ns     205.00 ns       1.63 us
 | | | | |- sirius::Radial_integrals|atomic_wfs                          4     126.67 ms       0.04       2.07      26.31 ms       4.32 us      74.05 ms
 | | | | |- sddk::Gvec::init                                             2        3.29 s       1.00      53.82        1.65 s     403.55 ms        2.89 s
 | | | | | |- sddk::Gvec::find_gvec_shells                               2        2.78 s       0.84      84.45        1.39 s     329.30 ms        2.45 s
 | | | | |
 | | | | |- sddk::Gvec_shells                                            1     290.37 ms       0.09       4.75     290.37 ms     290.37 ms     290.37 ms
 | | | | |- sirius::Simulation_context::init_atoms_to_grid_idx           1       6.54 ms       0.00       0.11       6.54 ms       6.54 ms       6.54 ms
 | | | | |- sirius::Augmentation_operator::generate_pw_coeffs            2        1.51 s       0.46      24.66     754.41 ms     753.11 ms     755.71 ms
 | | | | | |- sirius::Augmentation_operator::generate_pw_coeffs|1        2       8.00 ms       0.00       0.53       4.00 ms       3.52 ms       4.47 ms
 | | | | | |- sirius::Augmentation_operator::generate_pw_coeffs|2        2        1.37 s       0.42      90.97     686.26 ms     686.24 ms     686.28 ms
 | | |
 | | |- sirius::K_point_set::add_kpoints                                 1      37.77 us       0.00       0.00      37.77 us      37.77 us      37.77 us
 | | | |- sirius::K_point_set::add_kpoint                                1      18.77 us       0.00      49.72      18.77 us      18.77 us      18.77 us
 | | | | |- sirius::K_point::K_point                                     1       5.89 us       0.00      31.38       5.89 us       5.89 us       5.89 us
 | | |
 | | |- sirius::Smooth_periodic_function                                 2       8.56 ms       0.00       0.12       4.28 ms       4.24 ms       4.32 ms
 | | |- sirius::Potential                                                1      26.11 ms       0.01       0.38      26.11 ms      26.11 ms      26.11 ms
 | | | |- sirius::Smooth_periodic_function                               6      25.51 ms       0.01      97.69       4.24 ms       4.23 ms       4.31 ms
 | | | |- sirius::Potential::update                                      1     244.42 us       0.00       0.94     244.42 us     244.42 us     244.42 us
 | | |
 | | |- sirius::Density                                                  1       6.32 ms       0.00       0.09       6.32 ms       6.32 ms       6.32 ms
 | | | |- sirius::Smooth_periodic_function                               2       4.46 ms       0.00      70.68       2.23 ms     185.09 us       4.28 ms
 | | | |- sirius::Density::update                                        1     244.78 us       0.00       3.88     244.78 us     244.78 us     244.78 us
 | |
 | |- qe|init_vloc                                                       1     101.11 ms       0.03       0.59     101.11 ms     101.11 ms     101.11 ms
 | |- qe|init_run|hinit0|init_us_1                                       1     533.00 ns       0.00       0.00     533.00 ns     533.00 ns     533.00 ns
 | |- qe|init_run|hinit0|init_at_1                                       1      10.15 ms       0.00       0.06      10.15 ms      10.15 ms      10.15 ms
 | |- qe|setlocal                                                        1      41.98 ms       0.01       0.25      41.98 ms      41.98 ms      41.98 ms
 | |- qe|set_rhoc                                                        1      44.37 ms       0.01       0.26      44.37 ms      44.37 ms      44.37 ms
 | |- qe|potinit                                                         1     757.30 ms       0.23       4.43     757.30 ms     757.30 ms     757.30 ms
 | | |- qe|atomic_rho_g                                                  1       3.00 ms       0.00       0.40       3.00 ms       3.00 ms       3.00 ms
 | | | |- sirius_api::sirius_get_pw_coeffs_real                          2       1.49 ms       0.00      49.67     743.98 us     708.25 us     779.71 us
 | | |
 | | |- qe|paw_becsum                                                    1     352.00 ns       0.00       0.00     352.00 ns     352.00 ns     352.00 ns
 | | |- sirius_api::sirius_set_pw_coeffs                                 1     639.97 ms       0.19      84.51     639.97 ms     639.97 ms     639.97 ms
 | | | |- sirius::Smooth_periodic_function::fft_transform                1      15.23 ms       0.00       2.38      15.23 ms      15.23 ms      15.23 ms
 | | |
 | | |- qe|paw_potential                                                 1       1.65 us       0.00       0.00       1.65 us       1.65 us       1.65 us
 | | |- qe|set_vrs                                                       1      34.11 ms       0.01       4.50      34.11 ms      34.11 ms      34.11 ms
 | |
 | |- qe|newd                                                            1     717.15 ms       0.22       4.19     717.15 ms     717.15 ms     717.15 ms
 | | |- sirius::Potential::generate_D_operator_matrix                    1     714.58 ms       0.22      99.64     714.58 ms     714.58 ms     714.58 ms
 | |
 | |- sirius::K_point_set::initialize                                    1      70.96 ms       0.02       0.41      70.96 ms      70.96 ms      70.96 ms
 | | |- sirius::K_point::initialize                                      1      70.95 ms       0.02      99.98      70.95 ms      70.95 ms      70.95 ms
 | | | |- sirius::K_point::generate_gkvec                                1      12.86 ms       0.00      18.13      12.86 ms      12.86 ms      12.86 ms
 | | | | |- sddk::Gvec::init                                             1      10.10 ms       0.00      78.56      10.10 ms      10.10 ms      10.10 ms
 | | | |
 | | | |- sddk::matrix_storage::matrix_storage                           1      16.42 us       0.00       0.02      16.42 us      16.42 us      16.42 us
 | | | |- sirius::K_point::update                                        1      57.81 ms       0.02      81.48      57.81 ms      57.81 ms      57.81 ms
 | | | | |- sirius::Beta_projectors                                      1      57.60 ms       0.02      99.63      57.60 ms      57.60 ms      57.60 ms
 | | | | | |- sirius::Beta_projectors::generate_pw_coefs_t               1     564.29 us       0.00       0.98     564.29 us     564.29 us     564.29 us
 | | | | | |- sirius::Beta_projectors_base::generate                     2      57.02 ms       0.02      98.99      28.51 ms      27.91 ms      29.11 ms
 | |
 | |- sirius::Hamiltonian0                                               1       4.70 ms       0.00       0.03       4.70 ms       4.70 ms       4.70 ms
 | | |- sirius::Local_operator                                           1       3.60 ms       0.00      76.70       3.60 ms       3.60 ms       3.60 ms
 | | | |- sirius::Smooth_periodic_function                               1     191.09 us       0.00       5.30     191.09 us     191.09 us     191.09 us
 | | | |- sirius::Smooth_periodic_function::fft_transform                1       3.30 ms       0.00      91.71       3.30 ms       3.30 ms       3.30 ms
 | | |
 | | |- sirius::Non_local_operator                                       2      18.42 us       0.00       0.39       9.21 us       4.95 us      13.47 us
 | | |- sirius::D_operator::initialize                                   1     383.95 us       0.00       8.17     383.95 us     383.95 us     383.95 us
 | | |- sirius::Q_operator::initialize                                   1     200.78 us       0.00       4.27     200.78 us     200.78 us     200.78 us
 | |
 | |- sirius::Band::initialize_subspace                                  1        5.73 s       1.73      33.48        5.73 s        5.73 s        5.73 s
 | | |- sirius::Hamiltonian_k                                            1      18.79 us       0.00       0.00      18.79 us      18.79 us      18.79 us
 | | | |- sirius::Local_operator::prepare_k                              1      17.30 us       0.00      92.06      17.30 us      17.30 us      17.30 us
 | | |
 | | |- sirius::Band::initialize_subspace|kp                             1        5.73 s       1.73     100.00        5.73 s        5.73 s        5.73 s
 | | | |- sddk::matrix_storage::matrix_storage                           4      10.50 us       0.00       0.00       2.35 us     620.00 ns       5.19 us
 | | | |- sirius::Band::initialize_subspace|kp|wf                        1      42.71 ms       0.01       0.75      42.71 ms      42.71 ms      42.71 ms
 | | | | |- sirius::K_point::generate_atomic_wave_functions              1      33.48 ms       0.01      78.40      33.48 ms      33.48 ms      33.48 ms
 | | | |
 | | | |- sirius::Hamiltonian_k::apply_h_s                               1        4.45 s       1.35      77.70        4.45 s        4.45 s        4.45 s
 | | | | |- sirius::Local_operator::apply_h                              1        1.76 s       0.53      39.62        1.76 s        1.76 s        1.76 s
 | | | | | |- sddk::matrix_storage::remap_forward                        1       9.62 us       0.00       0.00       9.62 us       9.62 us       9.62 us
 | | | | | | |- sddk::matrix_storage::set_num_extra                      1       7.06 us       0.00      73.46       7.06 us       7.06 us       7.06 us
 | | | | | |
 | | | | | |- sddk::matrix_storage::set_num_extra                        1     447.00 ns       0.00       0.00     447.00 ns     447.00 ns     447.00 ns
 | | | | | |- sddk::matrix_storage::remap_backward                       1      27.08 us       0.00       0.00      27.08 us      27.08 us      27.08 us
 | | | | |
 | | | | |- sirius::Beta_projectors_base::inner                          2        1.15 s       0.35      25.80     573.99 ms     568.08 ms     579.89 ms
 | | | | | |- sirius::Beta_projectors_base::inner|comm                   2     402.11 ms       0.12      35.03     201.06 ms     196.72 ms     205.39 ms
 | | | | |
 | | | | |- sirius::Non_local_operator::apply                            4        1.53 s       0.46      34.36     382.77 ms     379.13 ms     383.91 ms
 | | | |
 | | | |- sirius::Band::set_subspace_mtrx                                2     490.92 ms       0.15       8.57     245.46 ms     189.33 ms     301.59 ms
 | | | | |- sddk::inner                                                  2     490.78 ms       0.15      99.97     245.39 ms     189.26 ms     301.51 ms
 | | | | | |- sddk::inner|local                                         18     309.88 ms       0.09      63.14       2.17 ms      45.96 us      39.15 ms
 | | | | | |- sddk::inner|store                                         18     180.56 ms       0.05      36.79       1.43 ms      17.34 us     124.33 ms
 | | | | | | |- sddk::inner|store|mpi                                   18     179.77 ms       0.05      99.56       1.39 ms      13.88 us     124.26 ms
 | | | |
 | | | |- Eigensolver_scalapack|pdsygvx                                  1     516.76 ms       0.16       9.02     516.76 ms     516.76 ms     516.76 ms
 | | | |- sddk::transform                                                1     213.27 ms       0.06       3.72     213.27 ms     213.27 ms     213.27 ms
 | | | | |- sddk::transform|init                                         1      27.00 ms       0.01      12.66      27.00 ms      27.00 ms      27.00 ms
 | | | | |- sddk::transform|mpi                                          2      50.65 ms       0.02      23.75      25.33 ms       6.81 ms      43.84 ms
 | | | | |- sddk::transform|local                                        2      89.89 ms       0.03      42.15      44.94 ms       3.24 ms      86.65 ms
 |
 |- qe|electrons                                                         1      308.94 s      93.56      93.56      308.94 s      308.94 s      308.94 s
 | |- sirius::Hamiltonian0                                              21      52.84 ms       0.02       0.02       2.36 ms       2.27 ms       5.16 ms
 | | |- sirius::Local_operator                                          21      31.81 ms       0.01      60.21       1.36 ms       1.29 ms       4.16 ms
 | | | |- sirius::Smooth_periodic_function                              21       3.80 ms       0.00      11.93     176.49 us     171.72 us     209.00 us
 | | | |- sirius::Smooth_periodic_function::fft_transform               21      25.78 ms       0.01      81.03       1.07 ms       1.01 ms       3.83 ms
 | | |
 | | |- sirius::Non_local_operator                                      42     342.45 us       0.00       0.65       9.20 us       4.76 us      14.63 us
 | | |- sirius::D_operator::initialize                                  21       6.88 ms       0.00      13.02     312.63 us     309.89 us     408.04 us
 | | |- sirius::Q_operator::initialize                                  21       4.15 ms       0.00       7.85     192.48 us     189.98 us     261.07 us
 | |
 | |- sirius::Band::solve                                               21      218.31 s      66.12      70.67        9.45 s        3.25 s       28.94 s
 | | |- sirius::Hamiltonian_k                                           21     379.60 us       0.00       0.00      17.21 us      16.13 us      37.59 us
 | | | |- sirius::Local_operator::prepare_k                             21     351.20 us       0.00      92.52      15.83 us      14.92 us      35.35 us
 | | |
 | | |- sirius::Band::diag_pseudo_potential_davidson                    21      218.31 s      66.12     100.00        9.45 s        3.25 s       28.94 s
 | | | |- sirius::Band::diag_pseudo_potential_davidson|alloc            21     361.32 us       0.00       0.00      16.52 us      15.40 us      23.56 us
 | | | | |- sddk::matrix_storage::matrix_storage                       126     119.56 us       0.00      33.09     815.00 ns     389.00 ns       2.35 us
 | | | |
 | | | |- sirius::Hamiltonian_k::get_h_o_diag                           21     185.54 ms       0.06       0.08       8.83 ms       8.76 ms       8.95 ms
 | | | |- sirius::Band::diag_pseudo_potential_davidson|iter             21      218.12 s      66.06      99.91        9.44 s        3.24 s       28.94 s
 | | | | |- sirius::Hamiltonian_k::apply_h_s                           102      112.39 s      34.04      51.53     677.78 ms      35.10 ms        2.46 s
 | | | | | |- sirius::Local_operator::apply_h                          102       48.97 s      14.83      43.57     245.00 ms       1.10 ms        1.12 s
 | | | | | | |- sddk::matrix_storage::remap_forward                    102     328.29 us       0.00       0.00       2.54 us       1.89 us      19.24 us
 | | | | | | | |- sddk::matrix_storage::set_num_extra                  102     295.23 us       0.00      89.93       2.24 us       1.61 us      18.89 us
 | | | | | | |
 | | | | | | |- sddk::matrix_storage::set_num_extra                    102      67.45 us       0.00       0.00     623.50 ns     439.00 ns       1.09 us
 | | | | | | |- sddk::matrix_storage::remap_backward                   102      46.80 us       0.00       0.00     459.00 ns     197.00 ns     887.00 ns
 | | | | | |
 | | | | | |- sirius::Beta_projectors_base::inner                      204       25.34 s       7.68      22.55      75.22 ms       5.66 ms     312.71 ms
 | | | | | | |- sirius::Beta_projectors_base::inner|comm               204        7.00 s       2.12      27.64      17.83 ms     142.72 us     120.83 ms
 | | | | | |
 | | | | | |- sirius::Non_local_operator::apply                        408       37.79 s      11.45      33.63      71.14 ms       5.52 ms     216.11 ms
 | | | | |
 | | | | |- sddk::orthogonalize                                        102       28.45 s       8.62      13.04     212.58 ms       6.76 ms     933.17 ms
 | | | | | |- sddk::inner                                              183        7.34 s       2.22      25.82      15.70 ms      79.70 us     318.37 ms
 | | | | | | |- sddk::inner|local                                      499        4.49 s       1.36      61.20       4.15 ms      10.47 us      42.27 ms
 | | | | | | |- sddk::inner|store                                      499        2.84 s       0.86      38.67     519.88 us     679.00 ns     256.49 ms
 | | | | | | | |- sddk::inner|store|mpi                                499        2.82 s       0.85      99.26     457.09 us      96.00 ns     256.43 ms
 | | | | | |
 | | | | | |- sddk::orthogonalize|potrf                                102     293.48 ms       0.09       1.03       1.74 ms      80.06 us      12.75 ms
 | | | | | |- sddk::orthogonalize|trtri                                102     268.17 ms       0.08       0.94     557.80 us      52.91 us      26.00 ms
 | | | | | |- sddk::transform                                          387       18.99 s       5.75      66.74      19.05 ms      47.14 us     392.85 ms
 | | | | | | |- sddk::transform|init                                   387        1.44 s       0.43       7.56       1.38 ms       1.10 us      18.41 ms
 | | | | | | |- sddk::transform|mpi                                    455        1.59 s       0.48       8.36       1.26 ms      21.85 us      25.26 ms
 | | | | | | |- sddk::transform|local                                  753       12.69 s       3.84      66.83       5.39 ms       3.12 us      82.16 ms
 | | | | |
 | | | | |- sirius::Band::set_subspace_mtrx                            102        5.71 s       1.73       2.62      42.09 ms       1.74 ms     206.17 ms
 | | | | | |- sddk::inner                                              102        5.68 s       1.72      99.40      41.72 ms       1.60 ms     205.46 ms
 | | | | | | |- sddk::inner|local                                      412        4.51 s       1.37      79.36       6.05 ms     221.95 us      42.31 ms
 | | | | | | |- sddk::inner|store                                      412        1.17 s       0.35      20.53     404.81 us     941.00 ns      23.47 ms
 | | | | | | | |- sddk::inner|store|mpi                                412        1.16 s       0.35      99.16     393.02 us     107.00 ns      23.42 ms
 | | | | |
 | | | | |- sirius::Band::diag_pseudo_potential_davidson|evp           102       58.44 s      17.70      26.79     477.65 ms     186.39 ms        1.33 s
 | | | | | |- Eigensolver_scalapack|pdsyevx                            102       58.44 s      17.70     100.00     477.65 ms     186.39 ms        1.33 s
 | | | | |
 | | | | |- sirius::residuals                                          102        8.88 s       2.69       4.07      62.88 ms      12.48 us     326.60 ms
 | | | | | |- sddk::transform                                           85        7.91 s       2.40      89.12      95.53 ms      10.01 ms     301.21 ms
 | | | | | | |- sddk::transform|init                                    85     538.59 ms       0.16       6.81       3.82 ms      14.03 us      15.84 ms
 | | | | | | |- sddk::transform|mpi                                    153     796.51 ms       0.24      10.07       2.00 ms      55.92 us      57.97 ms
 | | | | | | |- sddk::transform|local                                  306        5.57 s       1.69      70.40       8.85 ms     217.48 us      82.30 ms
 | | | | | |
 | | | | | |- sirius::normalized_preconditioned_residuals               85     915.56 ms       0.28      10.31       6.26 ms     274.20 us      28.51 ms
 | | | | |
 | | | | |- sirius::Band::diag_pseudo_potential_davidson|update_phi     21        3.98 s       1.20       1.82     196.44 ms      86.81 ms     335.99 ms
 | | | | | |- sddk::transform                                           21        3.98 s       1.20      99.99     196.43 ms      86.80 ms     335.98 ms
 | | | | | | |- sddk::transform|init                                    21     166.21 ms       0.05       4.18       7.87 ms       7.83 ms       8.59 ms
 | | | | | | |- sddk::transform|mpi                                     38     485.73 ms       0.15      12.21      11.97 ms       6.54 ms      35.55 ms
 | | | | | | |- sddk::transform|local                                   38        2.37 s       0.72      59.47      70.82 ms      17.55 ms      87.48 ms
 | | |
 | | |- sirius::K_point_set::sync_band_energies                         21     441.59 us       0.00       0.00      18.57 us      16.15 us      34.02 us
 | |
 | |- qe|sum_band                                                       21       48.57 s      14.71      15.72        2.30 s        2.28 s        2.40 s
 | | |- sirius::Density::generate                                       21       34.83 s      10.55      71.72        1.66 s        1.63 s        1.70 s
 | | | |- sirius::Density::generate_valence                             21       34.83 s      10.55     100.00        1.66 s        1.63 s        1.70 s
 | | | | |- sddk::matrix_storage::remap_forward                         21     126.37 us       0.00       0.00       5.29 us       3.94 us      17.78 us
 | | | | | |- sddk::matrix_storage::set_num_extra                       21     116.78 us       0.00      92.42       4.84 us       3.60 us      17.32 us
 | | | | |
 | | | | |- sirius::Density::add_k_point_contribution_dm                21        9.38 s       2.84      26.93     443.42 ms     430.37 ms     485.13 ms
 | | | | | |- sirius::Beta_projectors_base::inner                       42        9.37 s       2.84      99.83     218.10 ms     212.69 ms     269.57 ms
 | | | | | | |- sirius::Beta_projectors_base::inner|comm                42        2.54 s       0.77      27.08      56.81 ms      48.81 ms     110.20 ms
 | | | | |
 | | | | |- sirius::Density::add_k_point_contribution_rg                21       11.10 s       3.36      31.87     526.40 ms     519.41 ms     542.94 ms
 | | | | |- sirius::Smooth_periodic_function::fft_transform             21      18.55 ms       0.01       0.05     838.42 us     786.55 us       1.09 ms
 | | | | |- sirius::Density::augment                                    21       14.20 s       4.30      40.77     677.53 ms     648.30 ms     678.91 ms
 | | | | | |- sirius::Density::generate_rho_aug                         21       14.20 s       4.30      99.99     677.45 ms     648.22 ms     678.82 ms
 | | | | | | |- sirius::Density::generate_rho_aug|gemm                  42        4.67 s       1.42      32.91     110.44 ms      27.07 ms     196.18 ms
 | | | | | | |- sirius::Density::generate_rho_aug|sum                   42        2.01 s       0.61      14.19      47.92 ms      47.17 ms      48.80 ms
 | | |
 | | |- sirius_api::sirius_get_pw_coeffs                                21       11.95 s       3.62      24.61     554.45 ms     529.68 ms     636.03 ms
 | | | |- sirius::Smooth_periodic_function::gather_f_pw                 21       11.77 s       3.57      98.50     545.95 ms     521.18 ms     627.53 ms
 | | |
 | | |- qe|sym_rho                                                      21      40.41 us       0.00       0.00       1.58 us       1.51 us       5.65 us
 | |
 | |- qe|mix                                                            21     715.32 ms       0.22       0.23      38.28 ms     320.91 us      39.97 ms
 | |- sirius_api::sirius_set_pw_coeffs                                  20       27.00 s       8.18       8.74        1.35 s        1.18 s        1.75 s
 | | |- sirius::Smooth_periodic_function::fft_transform                 20     123.53 ms       0.04       0.46       6.13 ms       5.86 ms       6.76 ms
 | |
 | |- qe|newd                                                           20       12.67 s       3.84       4.10     633.44 ms     628.57 ms     638.89 ms
 | | |- sirius::Potential::generate_D_operator_matrix                   20       12.63 s       3.83      99.70     631.53 ms     626.64 ms     636.98 ms
 |
 |- sirius_api::sirius_get_wave_functions                                1        2.24 s       0.68       0.68        2.24 s        2.24 s        2.24 s
 | |- sddk::matrix_storage::matrix_storage                               1      19.64 us       0.00       0.00      19.64 us      19.64 us      19.64 us
 |
 |- qe|ions                                                              1        1.22 s       0.37       0.37        1.22 s        1.22 s        1.22 s
 | |- sirius_api::sirius_set_pw_coeffs                                   1        1.22 s       0.37      99.84        1.22 s        1.22 s        1.22 s
 | | |- sirius::Smooth_periodic_function::fft_transform                  1       6.18 ms       0.00       0.51       6.18 ms       6.18 ms       6.18 ms
 |
 |- qe|punch                                                             1     658.00 ns       0.00       0.00     658.00 ns     658.00 ns     658.00 ns
 |- sirius::finalize                                                     1      27.45 us       0.00       0.00      27.45 us      27.45 us      27.45 us

========================================================================================================================================================
 
Batch Job Summary Report for Job "test_scf" (20933519) on daint
-----------------------------------------------------------------------------------------------------
             Submit            Eligible               Start                 End    Elapsed  Timelimit 
------------------- ------------------- ------------------- ------------------- ---------- ---------- 
2020-03-10T14:11:32 2020-03-10T14:11:32 2020-03-10T14:11:46 2020-03-10T14:17:53   00:06:07   00:20:00 
-----------------------------------------------------------------------------------------------------
Username    Account     Partition   NNodes   Energy
----------  ----------  ----------  ------  --------------
antonk      csstaff     normal          16        0 joules
 
This job did not utilize any GPUs
 
----------------------------------------------------------
Scratch File System        Files       Quota
--------------------  ----------  ----------
/scratch/snx3000            2632     1000000
 
