
     Program PWSCF v.6.1 (svn rev. 13369) starts on  2May2017 at 14: 0:42 

     This program is part of the open-source Quantum ESPRESSO suite
     for quantum simulation of materials; please cite
         "P. Giannozzi et al., J. Phys.:Condens. Matter 21 395502 (2009);
          URL http://www.quantum-espresso.org", 
     in publications or presentations arising from this work. More details at
     http://www.quantum-espresso.org/quote

     Parallel version (MPI), running on  1024 processors
     K-points division:     npool     =      64
     R & G space division:  proc/nbgrp/npool/nimage =      16
     Reading input from aiida.in

     Current dimensions of program PWSCF are:
     Max number of different atomic species (ntypx) = 10
     Max number of k-points (npk) =  40000
     Max angular momentum in pseudopotentials (lmaxx) =  3

     Subspace diagonalization in iterative solution of the eigenvalue problem:
     one sub-group per band group will be used
     custom distributed-memory algorithm (size of sub-group:  4*  4 procs)

 
     Parallelization info
     --------------------
     sticks:   dense  smooth     PW     G-vecs:    dense   smooth      PW
     Min        1527     764    204               157889    55793    7731
     Max        1528     765    207               157895    55796    7734
     Sum       24439   12235   3283              2526263   892711  123717
 


     bravais-lattice index     =            0
     lattice parameter (alat)  =      31.4056  a.u.
     unit-cell volume          =   21903.1443 (a.u.)^3
     number of atoms/cell      =           54
     number of atomic types    =            2
     number of electrons       =       432.00
     number of Kohn-Sham states=          259
     kinetic-energy cutoff     =      45.0000  Ry
     charge density cutoff     =     360.0000  Ry
     convergence threshold     =      5.4E-07
     mixing beta               =       0.3500
     number of iterations used =            8  plain     mixing
     Exchange-correlation      = SLA  PW   PBE  PBE ( 1  4  3  4 0 0)

     celldm(1)=  31.405604  celldm(2)=   0.000000  celldm(3)=   0.000000
     celldm(4)=   0.000000  celldm(5)=   0.000000  celldm(6)=   0.000000

     crystal axes: (cart. coord. in units of alat)
               a(1) = (   1.000000   0.000000   0.000000 )  
               a(2) = (  -0.500000   0.707107  -0.500000 )  
               a(3) = (   0.000000   0.000000   1.000000 )  

     reciprocal axes: (cart. coord. in units 2 pi/alat)
               b(1) = (  1.000000  0.707107  0.000000 )  
               b(2) = (  0.000000  1.414214  0.000000 )  
               b(3) = (  0.000000  0.707107  1.000000 )  


     PseudoPot. # 1 for Cs read from file:
     ./pseudo/Cs_pbe_v1.uspp.F.UPF
     MD5 check sum: 3476d69cb178dfad3ffaa59df4e07ca4
     Pseudo is Ultrasoft + core correction, Zval =  9.0
     Generated by new atomic code, or converted to UPF format
     Using radial grid of  905 points,  6 beta functions with: 
                l(1) =   0
                l(2) =   0
                l(3) =   1
                l(4) =   1
                l(5) =   2
                l(6) =   2
     Q(r) pseudized with  6 coefficients,  rinner =    1.500   1.500   1.500
                                                       1.500   1.500

     PseudoPot. # 2 for I  read from file:
     ./pseudo/I_pbe_v1.uspp.F.UPF
     MD5 check sum: 51366c2fb896752a147e77acbb9f6bcb
     Pseudo is Ultrasoft + core correction, Zval =  7.0
     Generated by new atomic code, or converted to UPF format
     Using radial grid of  893 points,  6 beta functions with: 
                l(1) =   0
                l(2) =   0
                l(3) =   1
                l(4) =   1
                l(5) =   2
                l(6) =   2
     Q(r) pseudized with  8 coefficients,  rinner =    1.500   1.500   1.500
                                                       1.500   1.500

     atomic species   valence    mass     pseudopotential
        Cs             9.00   132.90545     Cs( 1.00)
        I              7.00   126.90447     I ( 1.00)

     No symmetry found


                                    s                        frac. trans.

      isym =  1     identity                                     

 cryst.   s( 1) = (     1          0          0      )
                  (     0          1          0      )
                  (     0          0          1      )

 cart.    s( 1) = (  1.0000000  0.0000000  0.0000000 )
                  (  0.0000000  1.0000000  0.0000000 )
                  (  0.0000000  0.0000000  1.0000000 )


   Cartesian axes

     site n.     atom                  positions (alat units)
         1           Cs  tau(   1) = (   0.5017165   0.7026808   0.4992023  )
         2           Cs  tau(   2) = (   0.4960805   0.7058427  -0.1691590  )
         3           Cs  tau(   3) = (   0.4973839   0.7031255   0.1659755  )
         4           Cs  tau(   4) = (   0.8318677   0.2320059  -0.1639536  )
         5           Cs  tau(   5) = (   0.8335526   0.2314284   0.1644626  )
         6           Cs  tau(   6) = (  -0.1676596   0.2398332   0.5022631  )
         7           Cs  tau(   7) = (  -0.3338764   0.4754186  -0.3307326  )
         8           Cs  tau(   8) = (  -0.3290218   0.4693873   0.0007166  )
         9           Cs  tau(   9) = (   0.6633029   0.4748157   0.3338028  )
        10           Cs  tau(  10) = (   0.3302503   0.0029377   0.9977557  )
        11           Cs  tau(  11) = (  -0.1711473   0.7070771  -0.1649074  )
        12           Cs  tau(  12) = (   0.3307027   0.0023636   0.6699324  )
        13           Cs  tau(  13) = (   0.1681891   0.2402687  -0.1666184  )
        14           Cs  tau(  14) = (   0.1658874   0.2310087   0.1659350  )
        15           Cs  tau(  15) = (   0.1714200   0.2363076   0.4995404  )
        16           Cs  tau(  16) = (  -0.0016889   0.4686185  -0.3297897  )
        17           Cs  tau(  17) = (  -0.0015722   0.4670557  -0.0013371  )
        18           Cs  tau(  18) = (   0.0013419   0.4737555   0.3373138  )
        19           Cs  tau(  19) = (   0.6651916   0.0025960   0.0037759  )
        20           Cs  tau(  20) = (   0.6668646   0.0025886   0.3373870  )
        21           Cs  tau(  21) = (   0.6687750   0.0043255   0.6667979  )
        22           Cs  tau(  22) = (   0.5037513   0.2364122   0.8304015  )
        23           Cs  tau(  23) = (   0.5024832   0.2354094   0.1625533  )
        24           Cs  tau(  24) = (   0.4958562   0.2376343   0.5015060  )
        25           Cs  tau(  25) = (   0.3371380   0.4726397  -0.3306555  )
        26           Cs  tau(  26) = (   0.3365983   0.4737141  -0.0026791  )
        27           Cs  tau(  27) = (   0.3372565   0.4725517   0.3307907  )
        28           I   tau(  28) = (   0.1671386   0.0047885   0.1665269  )
        29           I   tau(  29) = (   0.1626246   0.0001134   0.5026117  )
        30           I   tau(  30) = (   0.1632568   0.0033752   0.8337242  )
        31           I   tau(  31) = (   0.0026378   0.2396704   0.0006840  )
        32           I   tau(  32) = (   0.0014809   0.2322060   0.3303745  )
        33           I   tau(  33) = (   0.0003852   0.2364829   0.6714010  )
        34           I   tau(  34) = (  -0.1666704   0.4711793  -0.1714751  )
        35           I   tau(  35) = (  -0.1648226   0.4696941   0.1625623  )
        36           I   tau(  36) = (  -0.1627187   0.4731941   0.5020935  )
        37           I   tau(  37) = (   0.0039733   0.7060076  -0.3308480  )
        38           I   tau(  38) = (   0.4978450   0.0042372   0.4992420  )
        39           I   tau(  39) = (   0.5032656   0.0008918   0.8367556  )
        40           I   tau(  40) = (   0.3299398   0.2354726  -0.0034064  )
        41           I   tau(  41) = (   0.3365395   0.2362897   0.3368755  )
        42           I   tau(  42) = (   0.3302425   0.2322312   0.6679200  )
        43           I   tau(  43) = (   0.1626960   0.4741192  -0.1668570  )
        44           I   tau(  44) = (   0.1630565   0.4731238   0.1639866  )
        45           I   tau(  45) = (   0.1638568   0.4714577   0.5039082  )
        46           I   tau(  46) = (   0.3370183   0.7043389  -0.3347233  )
        47           I   tau(  47) = (   0.3289947   0.7050906   0.0005328  )
        48           I   tau(  48) = (   0.8351171   0.0030861   0.8300982  )
        49           I   tau(  49) = (   0.6623487   0.2335745  -0.0000096  )
        50           I   tau(  50) = (   0.6653641   0.2335697   0.3374476  )
        51           I   tau(  51) = (   0.6642059   0.2397299   0.6657209  )
        52           I   tau(  52) = (   0.5030050   0.4750142  -0.1656119  )
        53           I   tau(  53) = (   0.5043957   0.4733523   0.1664296  )
        54           I   tau(  54) = (   0.4984780   0.4757569   0.4986171  )

   Crystallographic axes

     site n.     atom                  positions (cryst. coord.)
         1           Cs  tau(   1) = (  0.9985868  0.9937407  0.9960726  )
         2           Cs  tau(   2) = (  0.9951867  0.9982123  0.3299471  )
         3           Cs  tau(   3) = (  0.9945687  0.9943697  0.6631603  )
         4           Cs  tau(   4) = (  0.9959206  0.3281058  0.0000993  )
         5           Cs  tau(   5) = (  0.9971971  0.3272891  0.3281072  )
         6           Cs  tau(   6) = (  0.0019280  0.3391753  0.6718507  )
         7           Cs  tau(   7) = (  0.0022954  0.6723435  0.0054392  )
         8           Cs  tau(   8) = (  0.0028851  0.6638138  0.3326235  )
         9           Cs  tau(   9) = (  0.9990483  0.6714908  0.6695483  )
        10           Cs  tau(  10) = (  0.3323275  0.0041545  0.9998330  )
        11           Cs  tau(  11) = (  0.3288317  0.9999580  0.3350716  )
        12           Cs  tau(  12) = (  0.3323740  0.0033426  0.6716037  )
        13           Cs  tau(  13) = (  0.3380847  0.3397912  0.0032772  )
        14           Cs  tau(  14) = (  0.3292352  0.3266957  0.3292828  )
        15           Cs  tau(  15) = (  0.3385147  0.3341894  0.6666351  )
        16           Cs  tau(  16) = (  0.3296744  0.6627266  0.0015736  )
        17           Cs  tau(  17) = (  0.3286860  0.6605165  0.3289212  )
        18           Cs  tau(  18) = (  0.3363376  0.6699914  0.6723095  )
        19           Cs  tau(  19) = (  0.6670272  0.0036712  0.0056115  )
        20           Cs  tau(  20) = (  0.6686950  0.0036609  0.3392174  )
        21           Cs  tau(  21) = (  0.6718336  0.0061171  0.6698564  )
        22           Cs  tau(  22) = (  0.6709200  0.3343373  0.9975701  )
        23           Cs  tau(  23) = (  0.6689428  0.3329192  0.3290129  )
        24           Cs  tau(  24) = (  0.6638890  0.3360656  0.6695388  )
        25           Cs  tau(  25) = (  0.6713448  0.6684135  0.0035512  )
        26           Cs  tau(  26) = (  0.6715648  0.6699330  0.3322874  )
        27           Cs  tau(  27) = (  0.6714010  0.6682890  0.6649352  )
        28           I   tau(  28) = (  0.1705246  0.0067720  0.1699129  )
        29           I   tau(  29) = (  0.1627048  0.0001603  0.5026919  )
        30           I   tau(  30) = (  0.1656435  0.0047733  0.8361108  )
        31           I   tau(  31) = (  0.1721104  0.3389451  0.1701566  )
        32           I   tau(  32) = (  0.1656753  0.3283888  0.4945689  )
        33           I   tau(  33) = (  0.1676038  0.3344373  0.8386197  )
        34           I   tau(  34) = (  0.1665037  0.6663482  0.1616990  )
        35           I   tau(  35) = (  0.1673013  0.6642478  0.4946862  )
        36           I   tau(  36) = (  0.1718801  0.6691975  0.8366922  )
        37           I   tau(  37) = (  0.5031961  0.9984456  0.1683748  )
        38           I   tau(  38) = (  0.5008411  0.0059923  0.5022382  )
        39           I   tau(  39) = (  0.5038963  0.0012613  0.8373863  )
        40           I   tau(  40) = (  0.4964441  0.3330085  0.1630979  )
        41           I   tau(  41) = (  0.5036216  0.3341641  0.5039576  )
        42           I   tau(  42) = (  0.4944548  0.3284246  0.8321322  )
        43           I   tau(  43) = (  0.4979489  0.6705058  0.1683959  )
        44           I   tau(  44) = (  0.4976055  0.6690981  0.4985357  )
        45           I   tau(  45) = (  0.4972277  0.6667419  0.8372791  )
        46           I   tau(  46) = (  0.8350611  0.9960856  0.1633195  )
        47           I   tau(  47) = (  0.8275691  0.9971488  0.4991072  )
        48           I   tau(  48) = (  0.8372993  0.0043644  0.8322804  )
        49           I   tau(  49) = (  0.8275108  0.3303242  0.1651525  )
        50           I   tau(  50) = (  0.8305229  0.3303174  0.5026064  )
        51           I   tau(  51) = (  0.8337205  0.3390293  0.8352356  )
        52           I   tau(  52) = (  0.8388907  0.6717715  0.1702738  )
        53           I   tau(  53) = (  0.8391063  0.6694212  0.5011402  )
        54           I   tau(  54) = (  0.8348889  0.6728218  0.8350280  )

     number of k points=   220  Marzari-Vanderbilt smearing, width (Ry)=  0.0200
                       cart. coord. in units 2pi/alat
        k(    1) = (   0.0000000   0.0000000   0.0000000), wk =   0.0133333
        k(    2) = (   0.0000000   0.1414214   0.2000000), wk =   0.0133333
        k(    3) = (   0.0000000   0.2828427   0.4000000), wk =   0.0133333
        k(    4) = (   0.0000000   0.2357023   0.0000000), wk =   0.0266667
        k(    5) = (   0.0000000   0.3771236   0.2000000), wk =   0.0133333
        k(    6) = (   0.0000000   0.5185450   0.4000000), wk =   0.0133333
        k(    7) = (   0.0000000  -0.0471405  -0.4000000), wk =   0.0133333
        k(    8) = (   0.0000000   0.0942809  -0.2000000), wk =   0.0133333
        k(    9) = (   0.0000000   0.4714045   0.0000000), wk =   0.0266667
        k(   10) = (   0.0000000   0.6128259   0.2000000), wk =   0.0133333
        k(   11) = (   0.0000000   0.7542472   0.4000000), wk =   0.0133333
        k(   12) = (   0.0000000   0.1885618  -0.4000000), wk =   0.0133333
        k(   13) = (   0.0000000   0.3299832  -0.2000000), wk =   0.0133333
        k(   14) = (   0.0000000  -0.7071068   0.0000000), wk =   0.0133333
        k(   15) = (   0.0000000  -0.5656854   0.2000000), wk =   0.0133333
        k(   16) = (   0.0000000  -0.4242641   0.4000000), wk =   0.0133333
        k(   17) = (   0.2000000   0.2828427   0.2000000), wk =   0.0066667
        k(   18) = (   0.2000000   0.4242641   0.4000000), wk =   0.0066667
        k(   19) = (   0.2000000  -0.1414214  -0.4000000), wk =   0.0066667
        k(   20) = (   0.2000000   0.0000000  -0.2000000), wk =   0.0133333
        k(   21) = (   0.2000000   0.5185450   0.2000000), wk =   0.0066667
        k(   22) = (   0.2000000   0.6599663   0.4000000), wk =   0.0066667
        k(   23) = (   0.2000000   0.0942809  -0.4000000), wk =   0.0066667
        k(   24) = (   0.2000000   0.2357023  -0.2000000), wk =   0.0133333
        k(   25) = (   0.2000000   0.7542472   0.2000000), wk =   0.0066667
        k(   26) = (   0.2000000   0.8956686   0.4000000), wk =   0.0066667
        k(   27) = (   0.2000000   0.3299832  -0.4000000), wk =   0.0066667
        k(   28) = (   0.2000000   0.4714045  -0.2000000), wk =   0.0133333
        k(   29) = (   0.2000000  -0.4242641   0.2000000), wk =   0.0066667
        k(   30) = (   0.2000000  -0.2828427   0.4000000), wk =   0.0066667
        k(   31) = (   0.2000000  -0.8485281  -0.4000000), wk =   0.0066667
        k(   32) = (   0.2000000  -0.7071068  -0.2000000), wk =   0.0133333
        k(   33) = (   0.2000000  -0.1885618   0.2000000), wk =   0.0066667
        k(   34) = (   0.2000000  -0.0471405   0.4000000), wk =   0.0066667
        k(   35) = (   0.2000000  -0.6128259  -0.4000000), wk =   0.0066667
        k(   36) = (   0.2000000   0.0471405   0.2000000), wk =   0.0066667
        k(   37) = (   0.2000000   0.1885618   0.4000000), wk =   0.0066667
        k(   38) = (   0.2000000  -0.3771236  -0.4000000), wk =   0.0066667
        k(   39) = (   0.4000000   0.5656854   0.4000000), wk =   0.0066667
        k(   40) = (   0.4000000   0.0000000  -0.4000000), wk =   0.0133333
        k(   41) = (   0.4000000   0.8013877   0.4000000), wk =   0.0066667
        k(   42) = (   0.4000000   0.2357023  -0.4000000), wk =   0.0133333
        k(   43) = (   0.4000000   1.0370899   0.4000000), wk =   0.0066667
        k(   44) = (   0.4000000   0.4714045  -0.4000000), wk =   0.0133333
        k(   45) = (   0.4000000  -0.1414214   0.4000000), wk =   0.0066667
        k(   46) = (   0.4000000  -0.7071068  -0.4000000), wk =   0.0133333
        k(   47) = (   0.4000000   0.0942809   0.4000000), wk =   0.0066667
        k(   48) = (   0.4000000   0.3299832   0.4000000), wk =   0.0066667
        k(   49) = (   0.0000000  -0.1414214   0.2000000), wk =   0.0133333
        k(   50) = (   0.2000000  -0.1414214   0.0000000), wk =   0.0133333
        k(   51) = (  -0.2000000  -0.1414214   0.0000000), wk =   0.0133333
        k(   52) = (   0.0000000  -0.2828427   0.4000000), wk =   0.0133333
        k(   53) = (   0.4000000  -0.2828427   0.0000000), wk =   0.0133333
        k(   54) = (  -0.4000000  -0.2828427   0.0000000), wk =   0.0133333
        k(   55) = (   0.0000000  -0.3771236   0.2000000), wk =   0.0133333
        k(   56) = (   0.2000000  -0.3771236   0.0000000), wk =   0.0133333
        k(   57) = (  -0.2000000  -0.3771236   0.0000000), wk =   0.0133333
        k(   58) = (   0.0000000  -0.5185450   0.4000000), wk =   0.0133333
        k(   59) = (   0.4000000  -0.5185450   0.0000000), wk =   0.0133333
        k(   60) = (  -0.4000000  -0.5185450   0.0000000), wk =   0.0133333
        k(   61) = (   0.0000000   0.0471405  -0.4000000), wk =   0.0133333
        k(   62) = (  -0.4000000   0.0471405   0.0000000), wk =   0.0133333
        k(   63) = (   0.4000000   0.0471405   0.0000000), wk =   0.0133333
        k(   64) = (   0.0000000  -0.0942809  -0.2000000), wk =   0.0133333
        k(   65) = (  -0.2000000  -0.0942809   0.0000000), wk =   0.0133333
        k(   66) = (   0.2000000  -0.0942809   0.0000000), wk =   0.0133333
        k(   67) = (   0.0000000  -0.6128259   0.2000000), wk =   0.0133333
        k(   68) = (   0.2000000  -0.6128259   0.0000000), wk =   0.0133333
        k(   69) = (  -0.2000000  -0.6128259   0.0000000), wk =   0.0133333
        k(   70) = (   0.0000000  -0.7542472   0.4000000), wk =   0.0133333
        k(   71) = (   0.4000000  -0.7542472   0.0000000), wk =   0.0133333
        k(   72) = (  -0.4000000  -0.7542472   0.0000000), wk =   0.0133333
        k(   73) = (   0.0000000  -0.1885618  -0.4000000), wk =   0.0133333
        k(   74) = (  -0.4000000  -0.1885618   0.0000000), wk =   0.0133333
        k(   75) = (   0.4000000  -0.1885618   0.0000000), wk =   0.0133333
        k(   76) = (   0.0000000  -0.3299832  -0.2000000), wk =   0.0133333
        k(   77) = (  -0.2000000  -0.3299832   0.0000000), wk =   0.0133333
        k(   78) = (   0.2000000  -0.3299832   0.0000000), wk =   0.0133333
        k(   79) = (   0.0000000   0.5656854   0.2000000), wk =   0.0133333
        k(   80) = (   0.2000000   0.5656854   0.0000000), wk =   0.0133333
        k(   81) = (  -0.2000000   0.5656854   0.0000000), wk =   0.0133333
        k(   82) = (   0.0000000   0.4242641   0.4000000), wk =   0.0133333
        k(   83) = (   0.4000000   0.4242641   0.0000000), wk =   0.0133333
        k(   84) = (  -0.4000000   0.4242641   0.0000000), wk =   0.0133333
        k(   85) = (  -0.2000000  -0.2828427   0.2000000), wk =   0.0066667
        k(   86) = (  -0.2000000   0.2828427  -0.2000000), wk =   0.0066667
        k(   87) = (   0.2000000  -0.2828427  -0.2000000), wk =   0.0066667
        k(   88) = (  -0.2000000  -0.4242641   0.4000000), wk =   0.0066667
        k(   89) = (  -0.2000000   0.4242641  -0.4000000), wk =   0.0066667
        k(   90) = (   0.2000000  -0.4242641  -0.4000000), wk =   0.0066667
        k(   91) = (   0.4000000  -0.4242641   0.2000000), wk =   0.0066667
        k(   92) = (  -0.4000000  -0.4242641  -0.2000000), wk =   0.0066667
        k(   93) = (   0.4000000   0.4242641  -0.2000000), wk =   0.0066667
        k(   94) = (  -0.4000000   0.4242641   0.2000000), wk =   0.0066667
        k(   95) = (  -0.2000000   0.1414214  -0.4000000), wk =   0.0066667
        k(   96) = (  -0.2000000  -0.1414214   0.4000000), wk =   0.0066667
        k(   97) = (   0.2000000   0.1414214   0.4000000), wk =   0.0066667
        k(   98) = (  -0.4000000   0.1414214   0.2000000), wk =   0.0066667
        k(   99) = (   0.4000000   0.1414214  -0.2000000), wk =   0.0066667
        k(  100) = (  -0.4000000  -0.1414214  -0.2000000), wk =   0.0066667
        k(  101) = (   0.4000000  -0.1414214   0.2000000), wk =   0.0066667
        k(  102) = (  -0.2000000  -0.0000000  -0.2000000), wk =   0.0133333
        k(  103) = (  -0.2000000  -0.5185450   0.2000000), wk =   0.0066667
        k(  104) = (  -0.2000000   0.5185450  -0.2000000), wk =   0.0066667
        k(  105) = (   0.2000000  -0.5185450  -0.2000000), wk =   0.0066667
        k(  106) = (  -0.2000000  -0.6599663   0.4000000), wk =   0.0066667
        k(  107) = (  -0.2000000   0.6599663  -0.4000000), wk =   0.0066667
        k(  108) = (   0.2000000  -0.6599663  -0.4000000), wk =   0.0066667
        k(  109) = (   0.4000000  -0.6599663   0.2000000), wk =   0.0066667
        k(  110) = (  -0.4000000  -0.6599663  -0.2000000), wk =   0.0066667
        k(  111) = (   0.4000000   0.6599663  -0.2000000), wk =   0.0066667
        k(  112) = (  -0.4000000   0.6599663   0.2000000), wk =   0.0066667
        k(  113) = (  -0.2000000  -0.0942809  -0.4000000), wk =   0.0066667
        k(  114) = (  -0.2000000   0.0942809   0.4000000), wk =   0.0066667
        k(  115) = (   0.2000000  -0.0942809   0.4000000), wk =   0.0066667
        k(  116) = (  -0.4000000  -0.0942809   0.2000000), wk =   0.0066667
        k(  117) = (   0.4000000  -0.0942809  -0.2000000), wk =   0.0066667
        k(  118) = (  -0.4000000   0.0942809  -0.2000000), wk =   0.0066667
        k(  119) = (   0.4000000   0.0942809   0.2000000), wk =   0.0066667
        k(  120) = (  -0.2000000  -0.2357023  -0.2000000), wk =   0.0133333
        k(  121) = (  -0.2000000   0.2357023   0.2000000), wk =   0.0133333
        k(  122) = (   0.2000000  -0.2357023   0.2000000), wk =   0.0133333
        k(  123) = (  -0.2000000  -0.7542472   0.2000000), wk =   0.0066667
        k(  124) = (  -0.2000000   0.7542472  -0.2000000), wk =   0.0066667
        k(  125) = (   0.2000000  -0.7542472  -0.2000000), wk =   0.0066667
        k(  126) = (  -0.2000000  -0.8956686   0.4000000), wk =   0.0066667
        k(  127) = (  -0.2000000   0.8956686  -0.4000000), wk =   0.0066667
        k(  128) = (   0.2000000  -0.8956686  -0.4000000), wk =   0.0066667
        k(  129) = (   0.4000000  -0.8956686   0.2000000), wk =   0.0066667
        k(  130) = (  -0.4000000  -0.8956686  -0.2000000), wk =   0.0066667
        k(  131) = (   0.4000000   0.8956686  -0.2000000), wk =   0.0066667
        k(  132) = (  -0.4000000   0.8956686   0.2000000), wk =   0.0066667
        k(  133) = (  -0.2000000  -0.3299832  -0.4000000), wk =   0.0066667
        k(  134) = (  -0.2000000   0.3299832   0.4000000), wk =   0.0066667
        k(  135) = (   0.2000000  -0.3299832   0.4000000), wk =   0.0066667
        k(  136) = (  -0.4000000  -0.3299832   0.2000000), wk =   0.0066667
        k(  137) = (   0.4000000  -0.3299832  -0.2000000), wk =   0.0066667
        k(  138) = (  -0.4000000   0.3299832  -0.2000000), wk =   0.0066667
        k(  139) = (   0.4000000   0.3299832   0.2000000), wk =   0.0066667
        k(  140) = (  -0.2000000  -0.4714045  -0.2000000), wk =   0.0133333
        k(  141) = (  -0.2000000   0.4714045   0.2000000), wk =   0.0133333
        k(  142) = (   0.2000000  -0.4714045   0.2000000), wk =   0.0133333
        k(  143) = (  -0.2000000   0.4242641   0.2000000), wk =   0.0066667
        k(  144) = (  -0.2000000  -0.4242641  -0.2000000), wk =   0.0066667
        k(  145) = (   0.2000000   0.4242641  -0.2000000), wk =   0.0066667
        k(  146) = (  -0.2000000   0.2828427   0.4000000), wk =   0.0066667
        k(  147) = (  -0.2000000  -0.2828427  -0.4000000), wk =   0.0066667
        k(  148) = (   0.2000000   0.2828427  -0.4000000), wk =   0.0066667
        k(  149) = (   0.4000000   0.2828427   0.2000000), wk =   0.0066667
        k(  150) = (  -0.4000000   0.2828427  -0.2000000), wk =   0.0066667
        k(  151) = (   0.4000000  -0.2828427  -0.2000000), wk =   0.0066667
        k(  152) = (  -0.4000000  -0.2828427   0.2000000), wk =   0.0066667
        k(  153) = (  -0.2000000   0.8485281  -0.4000000), wk =   0.0066667
        k(  154) = (  -0.2000000  -0.8485281   0.4000000), wk =   0.0066667
        k(  155) = (   0.2000000   0.8485281   0.4000000), wk =   0.0066667
        k(  156) = (  -0.4000000   0.8485281   0.2000000), wk =   0.0066667
        k(  157) = (   0.4000000   0.8485281  -0.2000000), wk =   0.0066667
        k(  158) = (  -0.4000000  -0.8485281  -0.2000000), wk =   0.0066667
        k(  159) = (   0.4000000  -0.8485281   0.2000000), wk =   0.0066667
        k(  160) = (  -0.2000000   0.7071068  -0.2000000), wk =   0.0133333
        k(  161) = (  -0.2000000   0.1885618   0.2000000), wk =   0.0066667
        k(  162) = (  -0.2000000  -0.1885618  -0.2000000), wk =   0.0066667
        k(  163) = (   0.2000000   0.1885618  -0.2000000), wk =   0.0066667
        k(  164) = (  -0.2000000   0.0471405   0.4000000), wk =   0.0066667
        k(  165) = (  -0.2000000  -0.0471405  -0.4000000), wk =   0.0066667
        k(  166) = (   0.2000000   0.0471405  -0.4000000), wk =   0.0066667
        k(  167) = (   0.4000000   0.0471405   0.2000000), wk =   0.0066667
        k(  168) = (  -0.4000000   0.0471405  -0.2000000), wk =   0.0066667
        k(  169) = (   0.4000000  -0.0471405  -0.2000000), wk =   0.0066667
        k(  170) = (  -0.4000000  -0.0471405   0.2000000), wk =   0.0066667
        k(  171) = (  -0.2000000   0.6128259  -0.4000000), wk =   0.0066667
        k(  172) = (  -0.2000000  -0.6128259   0.4000000), wk =   0.0066667
        k(  173) = (   0.2000000   0.6128259   0.4000000), wk =   0.0066667
        k(  174) = (  -0.4000000   0.6128259   0.2000000), wk =   0.0066667
        k(  175) = (   0.4000000   0.6128259  -0.2000000), wk =   0.0066667
        k(  176) = (  -0.4000000  -0.6128259  -0.2000000), wk =   0.0066667
        k(  177) = (   0.4000000  -0.6128259   0.2000000), wk =   0.0066667
        k(  178) = (  -0.2000000  -0.0471405   0.2000000), wk =   0.0066667
        k(  179) = (  -0.2000000   0.0471405  -0.2000000), wk =   0.0066667
        k(  180) = (   0.2000000  -0.0471405  -0.2000000), wk =   0.0066667
        k(  181) = (  -0.2000000  -0.1885618   0.4000000), wk =   0.0066667
        k(  182) = (  -0.2000000   0.1885618  -0.4000000), wk =   0.0066667
        k(  183) = (   0.2000000  -0.1885618  -0.4000000), wk =   0.0066667
        k(  184) = (   0.4000000  -0.1885618   0.2000000), wk =   0.0066667
        k(  185) = (  -0.4000000  -0.1885618  -0.2000000), wk =   0.0066667
        k(  186) = (   0.4000000   0.1885618  -0.2000000), wk =   0.0066667
        k(  187) = (  -0.4000000   0.1885618   0.2000000), wk =   0.0066667
        k(  188) = (  -0.2000000   0.3771236  -0.4000000), wk =   0.0066667
        k(  189) = (  -0.2000000  -0.3771236   0.4000000), wk =   0.0066667
        k(  190) = (   0.2000000   0.3771236   0.4000000), wk =   0.0066667
        k(  191) = (  -0.4000000   0.3771236   0.2000000), wk =   0.0066667
        k(  192) = (   0.4000000   0.3771236  -0.2000000), wk =   0.0066667
        k(  193) = (  -0.4000000  -0.3771236  -0.2000000), wk =   0.0066667
        k(  194) = (   0.4000000  -0.3771236   0.2000000), wk =   0.0066667
        k(  195) = (  -0.4000000  -0.5656854   0.4000000), wk =   0.0066667
        k(  196) = (  -0.4000000   0.5656854  -0.4000000), wk =   0.0066667
        k(  197) = (   0.4000000  -0.5656854  -0.4000000), wk =   0.0066667
        k(  198) = (  -0.4000000  -0.0000000  -0.4000000), wk =   0.0133333
        k(  199) = (  -0.4000000  -0.8013877   0.4000000), wk =   0.0066667
        k(  200) = (  -0.4000000   0.8013877  -0.4000000), wk =   0.0066667
        k(  201) = (   0.4000000  -0.8013877  -0.4000000), wk =   0.0066667
        k(  202) = (  -0.4000000  -0.2357023  -0.4000000), wk =   0.0133333
        k(  203) = (  -0.4000000   0.2357023   0.4000000), wk =   0.0133333
        k(  204) = (   0.4000000  -0.2357023   0.4000000), wk =   0.0133333
        k(  205) = (  -0.4000000  -1.0370899   0.4000000), wk =   0.0066667
        k(  206) = (  -0.4000000   1.0370899  -0.4000000), wk =   0.0066667
        k(  207) = (   0.4000000  -1.0370899  -0.4000000), wk =   0.0066667
        k(  208) = (  -0.4000000  -0.4714045  -0.4000000), wk =   0.0133333
        k(  209) = (  -0.4000000   0.4714045   0.4000000), wk =   0.0133333
        k(  210) = (   0.4000000  -0.4714045   0.4000000), wk =   0.0133333
        k(  211) = (  -0.4000000   0.1414214   0.4000000), wk =   0.0066667
        k(  212) = (  -0.4000000  -0.1414214  -0.4000000), wk =   0.0066667
        k(  213) = (   0.4000000   0.1414214  -0.4000000), wk =   0.0066667
        k(  214) = (  -0.4000000   0.7071068  -0.4000000), wk =   0.0133333
        k(  215) = (  -0.4000000  -0.0942809   0.4000000), wk =   0.0066667
        k(  216) = (  -0.4000000   0.0942809  -0.4000000), wk =   0.0066667
        k(  217) = (   0.4000000  -0.0942809  -0.4000000), wk =   0.0066667
        k(  218) = (  -0.4000000  -0.3299832   0.4000000), wk =   0.0066667
        k(  219) = (  -0.4000000   0.3299832  -0.4000000), wk =   0.0066667
        k(  220) = (   0.4000000  -0.3299832  -0.4000000), wk =   0.0066667

                       cryst. coord.
        k(    1) = (   0.0000000   0.0000000   0.0000000), wk =   0.0133333
        k(    2) = (   0.0000000   0.0000000   0.2000000), wk =   0.0133333
        k(    3) = (   0.0000000   0.0000000   0.4000000), wk =   0.0133333
        k(    4) = (   0.0000000   0.1666667   0.0000000), wk =   0.0266667
        k(    5) = (   0.0000000   0.1666667   0.2000000), wk =   0.0133333
        k(    6) = (   0.0000000   0.1666667   0.4000000), wk =   0.0133333
        k(    7) = (   0.0000000   0.1666667  -0.4000000), wk =   0.0133333
        k(    8) = (   0.0000000   0.1666667  -0.2000000), wk =   0.0133333
        k(    9) = (   0.0000000   0.3333333   0.0000000), wk =   0.0266667
        k(   10) = (   0.0000000   0.3333333   0.2000000), wk =   0.0133333
        k(   11) = (   0.0000000   0.3333333   0.4000000), wk =   0.0133333
        k(   12) = (   0.0000000   0.3333333  -0.4000000), wk =   0.0133333
        k(   13) = (   0.0000000   0.3333333  -0.2000000), wk =   0.0133333
        k(   14) = (   0.0000000  -0.5000000   0.0000000), wk =   0.0133333
        k(   15) = (   0.0000000  -0.5000000   0.2000000), wk =   0.0133333
        k(   16) = (   0.0000000  -0.5000000   0.4000000), wk =   0.0133333
        k(   17) = (   0.2000000   0.0000000   0.2000000), wk =   0.0066667
        k(   18) = (   0.2000000  -0.0000000   0.4000000), wk =   0.0066667
        k(   19) = (   0.2000000   0.0000000  -0.4000000), wk =   0.0066667
        k(   20) = (   0.2000000   0.0000000  -0.2000000), wk =   0.0133333
        k(   21) = (   0.2000000   0.1666667   0.2000000), wk =   0.0066667
        k(   22) = (   0.2000000   0.1666667   0.4000000), wk =   0.0066667
        k(   23) = (   0.2000000   0.1666667  -0.4000000), wk =   0.0066667
        k(   24) = (   0.2000000   0.1666667  -0.2000000), wk =   0.0133333
        k(   25) = (   0.2000000   0.3333333   0.2000000), wk =   0.0066667
        k(   26) = (   0.2000000   0.3333333   0.4000000), wk =   0.0066667
        k(   27) = (   0.2000000   0.3333333  -0.4000000), wk =   0.0066667
        k(   28) = (   0.2000000   0.3333333  -0.2000000), wk =   0.0133333
        k(   29) = (   0.2000000  -0.5000000   0.2000000), wk =   0.0066667
        k(   30) = (   0.2000000  -0.5000000   0.4000000), wk =   0.0066667
        k(   31) = (   0.2000000  -0.5000000  -0.4000000), wk =   0.0066667
        k(   32) = (   0.2000000  -0.5000000  -0.2000000), wk =   0.0133333
        k(   33) = (   0.2000000  -0.3333333   0.2000000), wk =   0.0066667
        k(   34) = (   0.2000000  -0.3333333   0.4000000), wk =   0.0066667
        k(   35) = (   0.2000000  -0.3333333  -0.4000000), wk =   0.0066667
        k(   36) = (   0.2000000  -0.1666667   0.2000000), wk =   0.0066667
        k(   37) = (   0.2000000  -0.1666667   0.4000000), wk =   0.0066667
        k(   38) = (   0.2000000  -0.1666667  -0.4000000), wk =   0.0066667
        k(   39) = (   0.4000000   0.0000000   0.4000000), wk =   0.0066667
        k(   40) = (   0.4000000   0.0000000  -0.4000000), wk =   0.0133333
        k(   41) = (   0.4000000   0.1666667   0.4000000), wk =   0.0066667
        k(   42) = (   0.4000000   0.1666667  -0.4000000), wk =   0.0133333
        k(   43) = (   0.4000000   0.3333333   0.4000000), wk =   0.0066667
        k(   44) = (   0.4000000   0.3333333  -0.4000000), wk =   0.0133333
        k(   45) = (   0.4000000  -0.5000000   0.4000000), wk =   0.0066667
        k(   46) = (   0.4000000  -0.5000000  -0.4000000), wk =   0.0133333
        k(   47) = (   0.4000000  -0.3333333   0.4000000), wk =   0.0066667
        k(   48) = (   0.4000000  -0.1666667   0.4000000), wk =   0.0066667
        k(   49) = (   0.0000000  -0.2000000   0.2000000), wk =   0.0133333
        k(   50) = (   0.2000000  -0.2000000   0.0000000), wk =   0.0133333
        k(   51) = (  -0.2000000   0.0000000   0.0000000), wk =   0.0133333
        k(   52) = (   0.0000000  -0.4000000   0.4000000), wk =   0.0133333
        k(   53) = (   0.4000000  -0.4000000   0.0000000), wk =   0.0133333
        k(   54) = (  -0.4000000   0.0000000   0.0000000), wk =   0.0133333
        k(   55) = (   0.0000000  -0.3666667   0.2000000), wk =   0.0133333
        k(   56) = (   0.2000000  -0.3666667   0.0000000), wk =   0.0133333
        k(   57) = (  -0.2000000  -0.1666667   0.0000000), wk =   0.0133333
        k(   58) = (   0.0000000  -0.5666667   0.4000000), wk =   0.0133333
        k(   59) = (   0.4000000  -0.5666667   0.0000000), wk =   0.0133333
        k(   60) = (  -0.4000000  -0.1666667   0.0000000), wk =   0.0133333
        k(   61) = (   0.0000000   0.2333333  -0.4000000), wk =   0.0133333
        k(   62) = (  -0.4000000   0.2333333   0.0000000), wk =   0.0133333
        k(   63) = (   0.4000000  -0.1666667   0.0000000), wk =   0.0133333
        k(   64) = (   0.0000000   0.0333333  -0.2000000), wk =   0.0133333
        k(   65) = (  -0.2000000   0.0333333   0.0000000), wk =   0.0133333
        k(   66) = (   0.2000000  -0.1666667   0.0000000), wk =   0.0133333
        k(   67) = (   0.0000000  -0.5333333   0.2000000), wk =   0.0133333
        k(   68) = (   0.2000000  -0.5333333   0.0000000), wk =   0.0133333
        k(   69) = (  -0.2000000  -0.3333333   0.0000000), wk =   0.0133333
        k(   70) = (   0.0000000  -0.7333333   0.4000000), wk =   0.0133333
        k(   71) = (   0.4000000  -0.7333333   0.0000000), wk =   0.0133333
        k(   72) = (  -0.4000000  -0.3333333   0.0000000), wk =   0.0133333
        k(   73) = (   0.0000000   0.0666667  -0.4000000), wk =   0.0133333
        k(   74) = (  -0.4000000   0.0666667   0.0000000), wk =   0.0133333
        k(   75) = (   0.4000000  -0.3333333   0.0000000), wk =   0.0133333
        k(   76) = (   0.0000000  -0.1333333  -0.2000000), wk =   0.0133333
        k(   77) = (  -0.2000000  -0.1333333   0.0000000), wk =   0.0133333
        k(   78) = (   0.2000000  -0.3333333   0.0000000), wk =   0.0133333
        k(   79) = (   0.0000000   0.3000000   0.2000000), wk =   0.0133333
        k(   80) = (   0.2000000   0.3000000   0.0000000), wk =   0.0133333
        k(   81) = (  -0.2000000   0.5000000   0.0000000), wk =   0.0133333
        k(   82) = (   0.0000000   0.1000000   0.4000000), wk =   0.0133333
        k(   83) = (   0.4000000   0.1000000   0.0000000), wk =   0.0133333
        k(   84) = (  -0.4000000   0.5000000   0.0000000), wk =   0.0133333
        k(   85) = (  -0.2000000  -0.2000000   0.2000000), wk =   0.0066667
        k(   86) = (  -0.2000000   0.4000000  -0.2000000), wk =   0.0066667
        k(   87) = (   0.2000000  -0.2000000  -0.2000000), wk =   0.0066667
        k(   88) = (  -0.2000000  -0.4000000   0.4000000), wk =   0.0066667
        k(   89) = (  -0.2000000   0.6000000  -0.4000000), wk =   0.0066667
        k(   90) = (   0.2000000  -0.2000000  -0.4000000), wk =   0.0066667
        k(   91) = (   0.4000000  -0.6000000   0.2000000), wk =   0.0066667
        k(   92) = (  -0.4000000   0.0000000  -0.2000000), wk =   0.0066667
        k(   93) = (   0.4000000   0.2000000  -0.2000000), wk =   0.0066667
        k(   94) = (  -0.4000000   0.4000000   0.2000000), wk =   0.0066667
        k(   95) = (  -0.2000000   0.4000000  -0.4000000), wk =   0.0066667
        k(   96) = (  -0.2000000  -0.2000000   0.4000000), wk =   0.0066667
        k(   97) = (   0.2000000  -0.2000000   0.4000000), wk =   0.0066667
        k(   98) = (  -0.4000000   0.2000000   0.2000000), wk =   0.0066667
        k(   99) = (   0.4000000  -0.0000000  -0.2000000), wk =   0.0066667
        k(  100) = (  -0.4000000   0.2000000  -0.2000000), wk =   0.0066667
        k(  101) = (   0.4000000  -0.4000000   0.2000000), wk =   0.0066667
        k(  102) = (  -0.2000000   0.2000000  -0.2000000), wk =   0.0133333
        k(  103) = (  -0.2000000  -0.3666667   0.2000000), wk =   0.0066667
        k(  104) = (  -0.2000000   0.5666667  -0.2000000), wk =   0.0066667
        k(  105) = (   0.2000000  -0.3666667  -0.2000000), wk =   0.0066667
        k(  106) = (  -0.2000000  -0.5666667   0.4000000), wk =   0.0066667
        k(  107) = (  -0.2000000   0.7666667  -0.4000000), wk =   0.0066667
        k(  108) = (   0.2000000  -0.3666667  -0.4000000), wk =   0.0066667
        k(  109) = (   0.4000000  -0.7666667   0.2000000), wk =   0.0066667
        k(  110) = (  -0.4000000  -0.1666667  -0.2000000), wk =   0.0066667
        k(  111) = (   0.4000000   0.3666667  -0.2000000), wk =   0.0066667
        k(  112) = (  -0.4000000   0.5666667   0.2000000), wk =   0.0066667
        k(  113) = (  -0.2000000   0.2333333  -0.4000000), wk =   0.0066667
        k(  114) = (  -0.2000000  -0.0333333   0.4000000), wk =   0.0066667
        k(  115) = (   0.2000000  -0.3666667   0.4000000), wk =   0.0066667
        k(  116) = (  -0.4000000   0.0333333   0.2000000), wk =   0.0066667
        k(  117) = (   0.4000000  -0.1666667  -0.2000000), wk =   0.0066667
        k(  118) = (  -0.4000000   0.3666667  -0.2000000), wk =   0.0066667
        k(  119) = (   0.4000000  -0.2333333   0.2000000), wk =   0.0066667
        k(  120) = (  -0.2000000   0.0333333  -0.2000000), wk =   0.0133333
        k(  121) = (  -0.2000000   0.1666667   0.2000000), wk =   0.0133333
        k(  122) = (   0.2000000  -0.3666667   0.2000000), wk =   0.0133333
        k(  123) = (  -0.2000000  -0.5333333   0.2000000), wk =   0.0066667
        k(  124) = (  -0.2000000   0.7333333  -0.2000000), wk =   0.0066667
        k(  125) = (   0.2000000  -0.5333333  -0.2000000), wk =   0.0066667
        k(  126) = (  -0.2000000  -0.7333333   0.4000000), wk =   0.0066667
        k(  127) = (  -0.2000000   0.9333333  -0.4000000), wk =   0.0066667
        k(  128) = (   0.2000000  -0.5333333  -0.4000000), wk =   0.0066667
        k(  129) = (   0.4000000  -0.9333333   0.2000000), wk =   0.0066667
        k(  130) = (  -0.4000000  -0.3333333  -0.2000000), wk =   0.0066667
        k(  131) = (   0.4000000   0.5333333  -0.2000000), wk =   0.0066667
        k(  132) = (  -0.4000000   0.7333333   0.2000000), wk =   0.0066667
        k(  133) = (  -0.2000000   0.0666667  -0.4000000), wk =   0.0066667
        k(  134) = (  -0.2000000   0.1333333   0.4000000), wk =   0.0066667
        k(  135) = (   0.2000000  -0.5333333   0.4000000), wk =   0.0066667
        k(  136) = (  -0.4000000  -0.1333333   0.2000000), wk =   0.0066667
        k(  137) = (   0.4000000  -0.3333333  -0.2000000), wk =   0.0066667
        k(  138) = (  -0.4000000   0.5333333  -0.2000000), wk =   0.0066667
        k(  139) = (   0.4000000  -0.0666667   0.2000000), wk =   0.0066667
        k(  140) = (  -0.2000000  -0.1333333  -0.2000000), wk =   0.0133333
        k(  141) = (  -0.2000000   0.3333333   0.2000000), wk =   0.0133333
        k(  142) = (   0.2000000  -0.5333333   0.2000000), wk =   0.0133333
        k(  143) = (  -0.2000000   0.3000000   0.2000000), wk =   0.0066667
        k(  144) = (  -0.2000000  -0.1000000  -0.2000000), wk =   0.0066667
        k(  145) = (   0.2000000   0.3000000  -0.2000000), wk =   0.0066667
        k(  146) = (  -0.2000000   0.1000000   0.4000000), wk =   0.0066667
        k(  147) = (  -0.2000000   0.1000000  -0.4000000), wk =   0.0066667
        k(  148) = (   0.2000000   0.3000000  -0.4000000), wk =   0.0066667
        k(  149) = (   0.4000000  -0.1000000   0.2000000), wk =   0.0066667
        k(  150) = (  -0.4000000   0.5000000  -0.2000000), wk =   0.0066667
        k(  151) = (   0.4000000  -0.3000000  -0.2000000), wk =   0.0066667
        k(  152) = (  -0.4000000  -0.1000000   0.2000000), wk =   0.0066667
        k(  153) = (  -0.2000000   0.9000000  -0.4000000), wk =   0.0066667
        k(  154) = (  -0.2000000  -0.7000000   0.4000000), wk =   0.0066667
        k(  155) = (   0.2000000   0.3000000   0.4000000), wk =   0.0066667
        k(  156) = (  -0.4000000   0.7000000   0.2000000), wk =   0.0066667
        k(  157) = (   0.4000000   0.5000000  -0.2000000), wk =   0.0066667
        k(  158) = (  -0.4000000  -0.3000000  -0.2000000), wk =   0.0066667
        k(  159) = (   0.4000000  -0.9000000   0.2000000), wk =   0.0066667
        k(  160) = (  -0.2000000   0.7000000  -0.2000000), wk =   0.0133333
        k(  161) = (  -0.2000000   0.1333333   0.2000000), wk =   0.0066667
        k(  162) = (  -0.2000000   0.0666667  -0.2000000), wk =   0.0066667
        k(  163) = (   0.2000000   0.1333333  -0.2000000), wk =   0.0066667
        k(  164) = (  -0.2000000  -0.0666667   0.4000000), wk =   0.0066667
        k(  165) = (  -0.2000000   0.2666667  -0.4000000), wk =   0.0066667
        k(  166) = (   0.2000000   0.1333333  -0.4000000), wk =   0.0066667
        k(  167) = (   0.4000000  -0.2666667   0.2000000), wk =   0.0066667
        k(  168) = (  -0.4000000   0.3333333  -0.2000000), wk =   0.0066667
        k(  169) = (   0.4000000  -0.1333333  -0.2000000), wk =   0.0066667
        k(  170) = (  -0.4000000   0.0666667   0.2000000), wk =   0.0066667
        k(  171) = (  -0.2000000   0.7333333  -0.4000000), wk =   0.0066667
        k(  172) = (  -0.2000000  -0.5333333   0.4000000), wk =   0.0066667
        k(  173) = (   0.2000000   0.1333333   0.4000000), wk =   0.0066667
        k(  174) = (  -0.4000000   0.5333333   0.2000000), wk =   0.0066667
        k(  175) = (   0.4000000   0.3333333  -0.2000000), wk =   0.0066667
        k(  176) = (  -0.4000000  -0.1333333  -0.2000000), wk =   0.0066667
        k(  177) = (   0.4000000  -0.7333333   0.2000000), wk =   0.0066667
        k(  178) = (  -0.2000000  -0.0333333   0.2000000), wk =   0.0066667
        k(  179) = (  -0.2000000   0.2333333  -0.2000000), wk =   0.0066667
        k(  180) = (   0.2000000  -0.0333333  -0.2000000), wk =   0.0066667
        k(  181) = (  -0.2000000  -0.2333333   0.4000000), wk =   0.0066667
        k(  182) = (  -0.2000000   0.4333333  -0.4000000), wk =   0.0066667
        k(  183) = (   0.2000000  -0.0333333  -0.4000000), wk =   0.0066667
        k(  184) = (   0.4000000  -0.4333333   0.2000000), wk =   0.0066667
        k(  185) = (  -0.4000000   0.1666667  -0.2000000), wk =   0.0066667
        k(  186) = (   0.4000000   0.0333333  -0.2000000), wk =   0.0066667
        k(  187) = (  -0.4000000   0.2333333   0.2000000), wk =   0.0066667
        k(  188) = (  -0.2000000   0.5666667  -0.4000000), wk =   0.0066667
        k(  189) = (  -0.2000000  -0.3666667   0.4000000), wk =   0.0066667
        k(  190) = (   0.2000000  -0.0333333   0.4000000), wk =   0.0066667
        k(  191) = (  -0.4000000   0.3666667   0.2000000), wk =   0.0066667
        k(  192) = (   0.4000000   0.1666667  -0.2000000), wk =   0.0066667
        k(  193) = (  -0.4000000   0.0333333  -0.2000000), wk =   0.0066667
        k(  194) = (   0.4000000  -0.5666667   0.2000000), wk =   0.0066667
        k(  195) = (  -0.4000000  -0.4000000   0.4000000), wk =   0.0066667
        k(  196) = (  -0.4000000   0.8000000  -0.4000000), wk =   0.0066667
        k(  197) = (   0.4000000  -0.4000000  -0.4000000), wk =   0.0066667
        k(  198) = (  -0.4000000   0.4000000  -0.4000000), wk =   0.0133333
        k(  199) = (  -0.4000000  -0.5666667   0.4000000), wk =   0.0066667
        k(  200) = (  -0.4000000   0.9666667  -0.4000000), wk =   0.0066667
        k(  201) = (   0.4000000  -0.5666667  -0.4000000), wk =   0.0066667
        k(  202) = (  -0.4000000   0.2333333  -0.4000000), wk =   0.0133333
        k(  203) = (  -0.4000000   0.1666667   0.4000000), wk =   0.0133333
        k(  204) = (   0.4000000  -0.5666667   0.4000000), wk =   0.0133333
        k(  205) = (  -0.4000000  -0.7333333   0.4000000), wk =   0.0066667
        k(  206) = (  -0.4000000   1.1333333  -0.4000000), wk =   0.0066667
        k(  207) = (   0.4000000  -0.7333333  -0.4000000), wk =   0.0066667
        k(  208) = (  -0.4000000   0.0666667  -0.4000000), wk =   0.0133333
        k(  209) = (  -0.4000000   0.3333333   0.4000000), wk =   0.0133333
        k(  210) = (   0.4000000  -0.7333333   0.4000000), wk =   0.0133333
        k(  211) = (  -0.4000000   0.1000000   0.4000000), wk =   0.0066667
        k(  212) = (  -0.4000000   0.3000000  -0.4000000), wk =   0.0066667
        k(  213) = (   0.4000000   0.1000000  -0.4000000), wk =   0.0066667
        k(  214) = (  -0.4000000   0.9000000  -0.4000000), wk =   0.0133333
        k(  215) = (  -0.4000000  -0.0666667   0.4000000), wk =   0.0066667
        k(  216) = (  -0.4000000   0.4666667  -0.4000000), wk =   0.0066667
        k(  217) = (   0.4000000  -0.0666667  -0.4000000), wk =   0.0066667
        k(  218) = (  -0.4000000  -0.2333333   0.4000000), wk =   0.0066667
        k(  219) = (  -0.4000000   0.6333333  -0.4000000), wk =   0.0066667
        k(  220) = (   0.4000000  -0.2333333  -0.4000000), wk =   0.0066667

     Dense  grid:  2526263 G-vectors     FFT dimensions: ( 192, 192, 192)

     Smooth grid:   892711 G-vectors     FFT dimensions: ( 135, 135, 135)

     Estimated max dynamical RAM per process >     563.13MB

     Estimated total allocated dynamical RAM >  576649.43MB

     Initial potential from superposition of free atoms

     starting charge  430.93370, renormalised to  432.00000
     Starting wfc are  459 randomized atomic wfcs

     total cpu time spent up to now is       92.8 secs

     per-process dynamical memory:   350.0 Mb

     Self-consistent Calculation

     iteration #  1     ecut=    45.00 Ry     beta=0.35
     Davidson diagonalization with overlap
     ethr =  1.00E-02,  avg # of iterations =  3.0

     Threshold (ethr) on eigenvalues was too large:
     Diagonalizing with lowered threshold

     Davidson diagonalization with overlap
     ethr =  2.91E-04,  avg # of iterations =  4.1

     total cpu time spent up to now is      350.6 secs

     total energy              =   -3481.19420849 Ry
     Harris-Foulkes estimate   =   -3481.65202611 Ry
     estimated scf accuracy    <       1.19717176 Ry

     iteration #  2     ecut=    45.00 Ry     beta=0.35
     Davidson diagonalization with overlap
     ethr =  2.77E-04,  avg # of iterations =  6.3

     total cpu time spent up to now is      509.4 secs

     total energy              =   -3481.18637068 Ry
     Harris-Foulkes estimate   =   -3481.48905832 Ry
     estimated scf accuracy    <       1.09248957 Ry

     iteration #  3     ecut=    45.00 Ry     beta=0.35
     Davidson diagonalization with overlap
     ethr =  2.53E-04,  avg # of iterations =  4.5

     total cpu time spent up to now is      656.2 secs

     total energy              =   -3481.26163305 Ry
     Harris-Foulkes estimate   =   -3481.50697933 Ry
     estimated scf accuracy    <       1.26521226 Ry

     iteration #  4     ecut=    45.00 Ry     beta=0.35
     Davidson diagonalization with overlap
     ethr =  2.53E-04,  avg # of iterations =  2.1

     total cpu time spent up to now is      773.1 secs

     total energy              =   -3481.33119668 Ry
     Harris-Foulkes estimate   =   -3481.49608193 Ry
     estimated scf accuracy    <       0.89787732 Ry

     iteration #  5     ecut=    45.00 Ry     beta=0.35
     Davidson diagonalization with overlap
     ethr =  2.08E-04,  avg # of iterations =  2.5

     total cpu time spent up to now is      882.9 secs

     total energy              =   -3481.37462972 Ry
     Harris-Foulkes estimate   =   -3481.51077826 Ry
     estimated scf accuracy    <       0.92004445 Ry

     iteration #  6     ecut=    45.00 Ry     beta=0.35
     Davidson diagonalization with overlap
     ethr =  2.08E-04,  avg # of iterations =  1.1

     total cpu time spent up to now is      986.0 secs

     total energy              =   -3481.42074367 Ry
     Harris-Foulkes estimate   =   -3481.51158075 Ry
     estimated scf accuracy    <       0.63182070 Ry

     iteration #  7     ecut=    45.00 Ry     beta=0.35
     Davidson diagonalization with overlap
     ethr =  1.46E-04,  avg # of iterations =  1.2

     total cpu time spent up to now is     1102.9 secs

     total energy              =   -3481.39709681 Ry
     Harris-Foulkes estimate   =   -3481.49221742 Ry
     estimated scf accuracy    <       1.18375414 Ry

     iteration #  8     ecut=    45.00 Ry     beta=0.35
     Davidson diagonalization with overlap
     ethr =  1.46E-04,  avg # of iterations =  1.0

     total cpu time spent up to now is     1215.7 secs

     total energy              =   -3481.43230847 Ry
     Harris-Foulkes estimate   =   -3481.46861377 Ry
     estimated scf accuracy    <       0.38170158 Ry

     iteration #  9     ecut=    45.00 Ry     beta=0.35
     Davidson diagonalization with overlap
     ethr =  8.84E-05,  avg # of iterations =  1.2

     total cpu time spent up to now is     1327.4 secs

     total energy              =   -3481.42520216 Ry
     Harris-Foulkes estimate   =   -3481.45423342 Ry
     estimated scf accuracy    <       0.36685360 Ry

     iteration # 10     ecut=    45.00 Ry     beta=0.35
     Davidson diagonalization with overlap
     ethr =  8.49E-05,  avg # of iterations =  1.0

     total cpu time spent up to now is     1430.4 secs

     total energy              =   -3481.42039841 Ry
     Harris-Foulkes estimate   =   -3481.43781953 Ry
     estimated scf accuracy    <       0.22298880 Ry

     iteration # 11     ecut=    45.00 Ry     beta=0.35
     Davidson diagonalization with overlap
     ethr =  5.16E-05,  avg # of iterations =  1.2

     total cpu time spent up to now is     1537.1 secs

     total energy              =   -3481.41079428 Ry
     Harris-Foulkes estimate   =   -3481.42561821 Ry
     estimated scf accuracy    <       0.16745133 Ry

     iteration # 12     ecut=    45.00 Ry     beta=0.35
     Davidson diagonalization with overlap
     ethr =  3.88E-05,  avg # of iterations =  4.8

     total cpu time spent up to now is     1662.5 secs

     total energy              =   -3481.39324698 Ry
     Harris-Foulkes estimate   =   -3481.41967212 Ry
     estimated scf accuracy    <       0.24368111 Ry

     iteration # 13     ecut=    45.00 Ry     beta=0.35
     Davidson diagonalization with overlap
     ethr =  3.88E-05,  avg # of iterations =  2.9

     total cpu time spent up to now is     1786.3 secs

     total energy              =   -3481.37618143 Ry
     Harris-Foulkes estimate   =   -3481.41633605 Ry
     estimated scf accuracy    <       0.32814955 Ry

     iteration # 14     ecut=    45.00 Ry     beta=0.35
     Davidson diagonalization with overlap
     ethr =  3.88E-05,  avg # of iterations =  4.5

     total cpu time spent up to now is     1910.0 secs

     total energy              =   -3481.34926431 Ry
     Harris-Foulkes estimate   =   -3481.43883603 Ry
     estimated scf accuracy    <       1.27898960 Ry

     iteration # 15     ecut=    45.00 Ry     beta=0.35
     Davidson diagonalization with overlap
     ethr =  3.88E-05,  avg # of iterations =  1.4

     total cpu time spent up to now is     2003.3 secs

     total energy              =   -3481.57209000 Ry
     Harris-Foulkes estimate   =   -3481.57325625 Ry
     estimated scf accuracy    <       0.01451113 Ry

     iteration # 16     ecut=    45.00 Ry     beta=0.35
     Davidson diagonalization with overlap
     ethr =  3.36E-06,  avg # of iterations = 14.1

     total cpu time spent up to now is     2166.3 secs

     total energy              =   -3481.57372744 Ry
     Harris-Foulkes estimate   =   -3481.57276364 Ry
     estimated scf accuracy    <       0.00603344 Ry

     iteration # 17     ecut=    45.00 Ry     beta=0.35
     Davidson diagonalization with overlap
     ethr =  1.40E-06,  avg # of iterations =  8.9

     total cpu time spent up to now is     2338.6 secs

     total energy              =   -3481.57458577 Ry
     Harris-Foulkes estimate   =   -3481.57439868 Ry
     estimated scf accuracy    <       0.00189188 Ry

     iteration # 18     ecut=    45.00 Ry     beta=0.35
     Davidson diagonalization with overlap
     ethr =  4.38E-07,  avg # of iterations =  2.1

     total cpu time spent up to now is     2452.5 secs

     total energy              =   -3481.57455772 Ry
     Harris-Foulkes estimate   =   -3481.57465222 Ry
     estimated scf accuracy    <       0.00121663 Ry

     iteration # 19     ecut=    45.00 Ry     beta=0.35
     Davidson diagonalization with overlap
     ethr =  2.82E-07,  avg # of iterations =  1.0

     total cpu time spent up to now is     2563.0 secs

     total energy              =   -3481.57435153 Ry
     Harris-Foulkes estimate   =   -3481.57458115 Ry
     estimated scf accuracy    <       0.00094361 Ry

     iteration # 20     ecut=    45.00 Ry     beta=0.35
     Davidson diagonalization with overlap
     ethr =  2.18E-07,  avg # of iterations =  2.0

     total cpu time spent up to now is     2685.5 secs

     total energy              =   -3481.57432066 Ry
     Harris-Foulkes estimate   =   -3481.57441305 Ry
     estimated scf accuracy    <       0.00054370 Ry

     iteration # 21     ecut=    45.00 Ry     beta=0.35
     Davidson diagonalization with overlap
     ethr =  1.26E-07,  avg # of iterations =  1.0

     total cpu time spent up to now is     2796.6 secs

     total energy              =   -3481.57416532 Ry
     Harris-Foulkes estimate   =   -3481.57433192 Ry
     estimated scf accuracy    <       0.00036403 Ry

     iteration # 22     ecut=    45.00 Ry     beta=0.35
     Davidson diagonalization with overlap
     ethr =  8.43E-08,  avg # of iterations =  2.0

     total cpu time spent up to now is     2927.4 secs

     total energy              =   -3481.57416733 Ry
     Harris-Foulkes estimate   =   -3481.57420475 Ry
     estimated scf accuracy    <       0.00006744 Ry

     iteration # 23     ecut=    45.00 Ry     beta=0.35
     Davidson diagonalization with overlap
     ethr =  1.56E-08,  avg # of iterations =  2.2

     total cpu time spent up to now is     3051.8 secs

     total energy              =   -3481.57417641 Ry
     Harris-Foulkes estimate   =   -3481.57417977 Ry
     estimated scf accuracy    <       0.00000980 Ry

     iteration # 24     ecut=    45.00 Ry     beta=0.35
     Davidson diagonalization with overlap
     ethr =  2.27E-09,  avg # of iterations =  2.4

     total cpu time spent up to now is     3166.6 secs

     total energy              =   -3481.57417734 Ry
     Harris-Foulkes estimate   =   -3481.57417755 Ry
     estimated scf accuracy    <       0.00000150 Ry

     iteration # 25     ecut=    45.00 Ry     beta=0.35
     Davidson diagonalization with overlap
     ethr =  3.48E-10,  avg # of iterations =  4.3

     total cpu time spent up to now is     3312.7 secs

     End of self-consistent calculation

          k = 0.0000 0.0000 0.0000 (111643 PWs)   bands (ev):

   -19.0212 -19.0108 -18.9973 -18.9853 -18.9849 -18.9814 -18.9803 -18.9745
   -18.9594 -18.9580 -18.9546 -18.9518 -18.9406 -18.9379 -18.9234 -18.9170
   -18.9059 -18.8992 -18.8973 -18.8846 -18.8819 -18.8772 -18.8671 -18.8301
   -18.8225 -18.8048 -18.7527  -9.2896  -9.2695  -9.2649  -9.2505  -9.2290
    -9.2121  -9.1997  -9.1968  -9.1888  -9.1830  -9.1706  -9.1582  -9.1484
    -9.1408  -9.1324  -9.1276  -9.1243  -9.1057  -9.1033  -9.0958  -9.0810
    -9.0659  -9.0475  -9.0413  -9.0315  -9.0150  -8.9983  -5.8874  -5.8820
    -5.8745  -5.8741  -5.8728  -5.8709  -5.8643  -5.8578  -5.8565  -5.8524
    -5.8469  -5.8370  -5.8329  -5.8323  -5.8281  -5.8173  -5.8129  -5.8122
    -5.8101  -5.8078  -5.8046  -5.8036  -5.8027  -5.7989  -5.7977  -5.7975
    -5.7964  -5.7952  -5.7902  -5.7878  -5.7857  -5.7811  -5.7787  -5.7779
    -5.7739  -5.7719  -5.7711  -5.7669  -5.7617  -5.7605  -5.7581  -5.7565
    -5.7533  -5.7510  -5.7482  -5.7468  -5.7419  -5.7406  -5.7353  -5.7325
    -5.7314  -5.7295  -5.7250  -5.7239  -5.7184  -5.7168  -5.7131  -5.7088
    -5.7065  -5.7056  -5.7036  -5.7024  -5.7003  -5.6975  -5.6946  -5.6889
    -5.6866  -5.6828  -5.6783  -5.6773  -5.6629  -5.6529  -5.6514  -5.6435
    -5.6411  -5.6369  -5.6273  -5.6237  -5.5873  -5.5827  -5.5800   0.3985
     0.4028   0.4077   0.4196   0.4251   0.4378   0.4489   0.4669   0.5125
     0.5165   0.5273   0.5350   0.5364   0.5414   0.5461   0.5531   0.5651
     0.5668   0.5709   0.5729   0.5772   0.5838   0.5920   0.5951   0.5973
     0.6057   0.7060   0.7092   0.7136   0.7165   0.7282   0.7335   0.7411
     0.7422   0.7504   0.7545   0.7579   0.7653   0.7664   0.7783   0.7835
     0.7855   0.7885   0.7942   0.7966   0.8030   0.8067   0.8091   0.8166
     0.8179   0.8200   0.8212   0.8318   0.8372   0.8379   0.8426   0.8433
     0.8472   0.8476   0.8527   0.8602   0.8646   0.8714   0.8731   0.8804
     0.8872   0.9576   0.9647   0.9666   0.9709   0.9763   0.9824   0.9849
     0.9867   0.9921   1.0013   1.0044   1.0166   1.0603   1.0681   1.0708
     4.9234   5.7359   5.7440   5.7533   5.7564   5.7609   5.7654   6.3185
     6.3264   6.3314   6.3456   6.3528   6.3692   6.4032   6.4123   6.4291
     6.4353   6.4373   6.4437   6.4568   6.4747   6.5064   6.5135   6.5217
     6.5238   6.5318   6.5397   6.5451   6.5480   6.5514   6.5672   6.5687
     6.5952   6.7113   6.7149   6.7191   6.9213   6.9289   6.9463   6.9526
     6.9672   6.9696   6.9925

     occupation numbers 
     1.0000   1.0000   1.0000   1.0000   1.0000   1.0000   1.0000   1.0000
     1.0000   1.0000   1.0000   1.0000   1.0000   1.0000   1.0000   1.0000
     1.0000   1.0000   1.0000   1.0000   1.0000   1.0000   1.0000   1.0000
     1.0000   1.0000   1.0000   1.0000   1.0000   1.0000   1.0000   1.0000
     1.0000   1.0000   1.0000   1.0000   1.0000   1.0000   1.0000   1.0000
     1.0000   1.0000   1.0000   1.0000   1.0000   1.0000   1.0000   1.0000
     1.0000   1.0000   1.0000   1.0000   1.0000   1.0000   1.0000   1.0000
     1.0000   1.0000   1.0000   1.0000   1.0000   1.0000   1.0000   1.0000
     1.0000   1.0000   1.0000   1.0000   1.0000   1.0000   1.0000   1.0000
     1.0000   1.0000   1.0000   1.0000   1.0000   1.0000   1.0000   1.0000
     1.0000   1.0000   1.0000   1.0000   1.0000   1.0000   1.0000   1.0000
     1.0000   1.0000   1.0000   1.0000   1.0000   1.0000   1.0000   1.0000
     1.0000   1.0000   1.0000   1.0000   1.0000   1.0000   1.0000   1.0000
     1.0000   1.0000   1.0000   1.0000   1.0000   1.0000   1.0000   1.0000
     1.0000   1.0000   1.0000   1.0000   1.0000   1.0000   1.0000   1.0000
     1.0000   1.0000   1.0000   1.0000   1.0000   1.0000   1.0000   1.0000
     1.0000   1.0000   1.0000   1.0000   1.0000   1.0000   1.0000   1.0000
     1.0000   1.0000   1.0000   1.0000   1.0000   1.0000   1.0000   1.0000
     1.0000   1.0000   1.0000   1.0000   1.0000   1.0000   1.0000   1.0000
     1.0000   1.0000   1.0000   1.0000   1.0000   1.0000   1.0000   1.0000
     1.0000   1.0000   1.0000   1.0000   1.0000   1.0000   1.0000   1.0000
     1.0000   1.0000   1.0000   1.0000   1.0000   1.0000   1.0000   1.0000
     1.0000   1.0000   1.0000   1.0000   1.0000   1.0000   1.0000   1.0000
     1.0000   1.0000   1.0000   1.0000   1.0000   1.0000   1.0000   1.0000
     1.0000   1.0000   1.0000   1.0000   1.0000   1.0000   1.0000   1.0000
     1.0000   1.0000   1.0000   1.0000   1.0000   1.0000   1.0000   1.0000
     1.0000   1.0000   1.0000   1.0000   1.0000   1.0000   1.0000   1.0000
     0.0000   0.0000   0.0000   0.0000   0.0000   0.0000   0.0000   0.0000
     0.0000   0.0000   0.0000   0.0000   0.0000   0.0000   0.0000   0.0000
     0.0000   0.0000   0.0000   0.0000   0.0000   0.0000   0.0000   0.0000
     0.0000   0.0000   0.0000   0.0000   0.0000   0.0000   0.0000   0.0000
     0.0000   0.0000   0.0000   0.0000   0.0000   0.0000   0.0000   0.0000
     0.0000   0.0000   0.0000

          k = 0.0000 0.1414 0.2000 (111721 PWs)   bands (ev):

   -19.0212 -19.0108 -18.9973 -18.9853 -18.9849 -18.9814 -18.9803 -18.9745
   -18.9594 -18.9580 -18.9546 -18.9518 -18.9406 -18.9379 -18.9234 -18.9170
   -18.9059 -18.8992 -18.8973 -18.8846 -18.8819 -18.8772 -18.8671 -18.8301
   -18.8225 -18.8048 -18.7527  -9.2896  -9.2693  -9.2651  -9.2506  -9.2289
    -9.2120  -9.1998  -9.1968  -9.1888  -9.1834  -9.1706  -9.1580  -9.1482
    -9.1408  -9.1325  -9.1278  -9.1244  -9.1057  -9.1033  -9.0957  -9.0811
    -9.0660  -9.0475  -9.0415  -9.0312  -9.0150  -8.9982  -5.8899  -5.8853
    -5.8770  -5.8699  -5.8694  -5.8676  -5.8631  -5.8550  -5.8511  -5.8480
    -5.8408  -5.8357  -5.8340  -5.8327  -5.8292  -5.8209  -5.8182  -5.8150
    -5.8123  -5.8096  -5.8074  -5.8058  -5.8034  -5.8008  -5.7990  -5.7969
    -5.7951  -5.7922  -5.7893  -5.7873  -5.7857  -5.7836  -5.7817  -5.7787
    -5.7757  -5.7718  -5.7706  -5.7678  -5.7628  -5.7620  -5.7585  -5.7569
    -5.7554  -5.7529  -5.7495  -5.7455  -5.7421  -5.7396  -5.7373  -5.7333
    -5.7311  -5.7286  -5.7241  -5.7214  -5.7188  -5.7161  -5.7120  -5.7081
    -5.7073  -5.7063  -5.7036  -5.7027  -5.7002  -5.6972  -5.6928  -5.6875
    -5.6854  -5.6818  -5.6779  -5.6774  -5.6614  -5.6525  -5.6513  -5.6440
    -5.6399  -5.6360  -5.6268  -5.6240  -5.5872  -5.5830  -5.5802   0.3348
     0.3900   0.3908   0.3956   0.4396   0.4462   0.4586   0.4739   0.4793
     0.4878   0.5250   0.5319   0.5395   0.5475   0.5528   0.5555   0.5617
     0.5647   0.5724   0.5943   0.6056   0.6136   0.6204   0.6267   0.6385
     0.6451   0.6970   0.7022   0.7128   0.7155   0.7212   0.7271   0.7356
     0.7395   0.7471   0.7509   0.7551   0.7646   0.7707   0.7766   0.7834
     0.7874   0.7945   0.7971   0.8016   0.8053   0.8112   0.8162   0.8181
     0.8199   0.8231   0.8291   0.8379   0.8391   0.8424   0.8465   0.8489
     0.8532   0.8557   0.8625   0.8701   0.8722   0.8769   0.8846   0.8885
     0.8996   0.9437   0.9502   0.9526   0.9607   0.9617   0.9682   0.9735
     0.9781   0.9820   0.9906   0.9950   1.0097   1.0319   1.0476   1.0588
     5.0134   5.7148   5.7221   5.7325   5.8756   5.8838   5.8915   6.0516
     6.2050   6.2187   6.2246   6.2371   6.2443   6.2564   6.3101   6.3366
     6.3530   6.5145   6.5259   6.5347   6.5439   6.5553   6.5685   6.5816
     6.5865   6.5924   6.6005   6.6107   6.6297   6.6945   6.7113   6.7365
     6.7394   6.7601   6.7674   6.7790   6.7904   6.7944   6.8130   6.8261
     6.9774   6.9886   7.0172

     occupation numbers 
     1.0000   1.0000   1.0000   1.0000   1.0000   1.0000   1.0000   1.0000
     1.0000   1.0000   1.0000   1.0000   1.0000   1.0000   1.0000   1.0000
     1.0000   1.0000   1.0000   1.0000   1.0000   1.0000   1.0000   1.0000
     1.0000   1.0000   1.0000   1.0000   1.0000   1.0000   1.0000   1.0000
     1.0000   1.0000   1.0000   1.0000   1.0000   1.0000   1.0000   1.0000
     1.0000   1.0000   1.0000   1.0000   1.0000   1.0000   1.0000   1.0000
     1.0000   1.0000   1.0000   1.0000   1.0000   1.0000   1.0000   1.0000
     1.0000   1.0000   1.0000   1.0000   1.0000   1.0000   1.0000   1.0000
     1.0000   1.0000   1.0000   1.0000   1.0000   1.0000   1.0000   1.0000
     1.0000   1.0000   1.0000   1.0000   1.0000   1.0000   1.0000   1.0000
     1.0000   1.0000   1.0000   1.0000   1.0000   1.0000   1.0000   1.0000
     1.0000   1.0000   1.0000   1.0000   1.0000   1.0000   1.0000   1.0000
     1.0000   1.0000   1.0000   1.0000   1.0000   1.0000   1.0000   1.0000
     1.0000   1.0000   1.0000   1.0000   1.0000   1.0000   1.0000   1.0000
     1.0000   1.0000   1.0000   1.0000   1.0000   1.0000   1.0000   1.0000
     1.0000   1.0000   1.0000   1.0000   1.0000   1.0000   1.0000   1.0000
     1.0000   1.0000   1.0000   1.0000   1.0000   1.0000   1.0000   1.0000
     1.0000   1.0000   1.0000   1.0000   1.0000   1.0000   1.0000   1.0000
     1.0000   1.0000   1.0000   1.0000   1.0000   1.0000   1.0000   1.0000
     1.0000   1.0000   1.0000   1.0000   1.0000   1.0000   1.0000   1.0000
     1.0000   1.0000   1.0000   1.0000   1.0000   1.0000   1.0000   1.0000
     1.0000   1.0000   1.0000   1.0000   1.0000   1.0000   1.0000   1.0000
     1.0000   1.0000   1.0000   1.0000   1.0000   1.0000   1.0000   1.0000
     1.0000   1.0000   1.0000   1.0000   1.0000   1.0000   1.0000   1.0000
     1.0000   1.0000   1.0000   1.0000   1.0000   1.0000   1.0000   1.0000
     1.0000   1.0000   1.0000   1.0000   1.0000   1.0000   1.0000   1.0000
     1.0000   1.0000   1.0000   1.0000   1.0000   1.0000   1.0000   1.0000
     0.0000   0.0000   0.0000   0.0000   0.0000   0.0000   0.0000   0.0000
     0.0000   0.0000   0.0000   0.0000   0.0000   0.0000   0.0000   0.0000
     0.0000   0.0000   0.0000   0.0000   0.0000   0.0000   0.0000   0.0000
     0.0000   0.0000   0.0000   0.0000   0.0000   0.0000   0.0000   0.0000
     0.0000   0.0000   0.0000   0.0000   0.0000   0.0000   0.0000   0.0000
     0.0000   0.0000   0.0000

          k = 0.0000 0.2828 0.4000 (111678 PWs)   bands (ev):

   -19.0212 -19.0108 -18.9973 -18.9853 -18.9849 -18.9814 -18.9803 -18.9745
   -18.9594 -18.9580 -18.9546 -18.9518 -18.9406 -18.9379 -18.9234 -18.9170
   -18.9059 -18.8992 -18.8973 -18.8846 -18.8819 -18.8772 -18.8671 -18.8301
   -18.8225 -18.8048 -18.7527  -9.2895  -9.2689  -9.2653  -9.2507  -9.2288
    -9.2117  -9.1999  -9.1967  -9.1888  -9.1841  -9.1706  -9.1578  -9.1479
    -9.1408  -9.1326  -9.1282  -9.1245  -9.1057  -9.1032  -9.0956  -9.0813
    -9.0661  -9.0474  -9.0419  -9.0306  -9.0148  -8.9981  -5.8923  -5.8883
    -5.8789  -5.8682  -5.8620  -5.8595  -5.8563  -5.8522  -5.8470  -5.8425
    -5.8419  -5.8358  -5.8330  -5.8313  -5.8252  -5.8236  -5.8206  -5.8188
    -5.8149  -5.8139  -5.8111  -5.8085  -5.8059  -5.8032  -5.7998  -5.7980
    -5.7949  -5.7938  -5.7907  -5.7893  -5.7865  -5.7832  -5.7815  -5.7800
    -5.7772  -5.7735  -5.7717  -5.7694  -5.7675  -5.7633  -5.7602  -5.7578
    -5.7573  -5.7540  -5.7496  -5.7463  -5.7433  -5.7404  -5.7378  -5.7325
    -5.7309  -5.7279  -5.7264  -5.7175  -5.7163  -5.7142  -5.7116  -5.7083
    -5.7072  -5.7061  -5.7041  -5.7018  -5.6991  -5.6971  -5.6907  -5.6854
    -5.6832  -5.6805  -5.6777  -5.6775  -5.6591  -5.6533  -5.6489  -5.6457
    -5.6379  -5.6347  -5.6261  -5.6246  -5.5871  -5.5835  -5.5804   0.2868
     0.3828   0.3850   0.3885   0.4064   0.4103   0.4173   0.4863   0.4941
     0.5021   0.5165   0.5203   0.5276   0.5435   0.5533   0.5561   0.5613
     0.5663   0.5712   0.6312   0.6401   0.6512   0.6658   0.6813   0.6875
     0.6905   0.6970   0.7030   0.7067   0.7089   0.7160   0.7247   0.7319
     0.7383   0.7493   0.7561   0.7634   0.7672   0.7755   0.7843   0.7891
     0.7973   0.8005   0.8035   0.8070   0.8106   0.8139   0.8183   0.8216
     0.8262   0.8302   0.8361   0.8394   0.8474   0.8518   0.8573   0.8610
     0.8670   0.8721   0.8774   0.8800   0.8892   0.8928   0.8965   0.9018
     0.9076   0.9154   0.9204   0.9233   0.9316   0.9381   0.9403   0.9550
     0.9593   0.9615   0.9673   0.9732   0.9822   1.0026   1.0153   1.0310
     5.2655   5.6340   5.7853   5.7943   5.8059   5.9646   5.9716   5.9888
     6.0838   6.0923   6.1013   6.1958   6.2070   6.2197   6.2327   6.2692
     6.2765   6.4560   6.4633   6.4701   6.6296   6.6416   6.6532   6.6723
     6.6887   6.6965   6.7019   6.7157   6.7264   6.7331   6.7578   6.7824
     6.7952   6.8159   6.8513   6.8604   6.8664   6.8736   6.8799   6.9045
     6.9237   6.9364   6.9612

     occupation numbers 
     1.0000   1.0000   1.0000   1.0000   1.0000   1.0000   1.0000   1.0000
     1.0000   1.0000   1.0000   1.0000   1.0000   1.0000   1.0000   1.0000
     1.0000   1.0000   1.0000   1.0000   1.0000   1.0000   1.0000   1.0000
     1.0000   1.0000   1.0000   1.0000   1.0000   1.0000   1.0000   1.0000
     1.0000   1.0000   1.0000   1.0000   1.0000   1.0000   1.0000   1.0000
     1.0000   1.0000   1.0000   1.0000   1.0000   1.0000   1.0000   1.0000
     1.0000   1.0000   1.0000   1.0000   1.0000   1.0000   1.0000   1.0000
     1.0000   1.0000   1.0000   1.0000   1.0000   1.0000   1.0000   1.0000
     1.0000   1.0000   1.0000   1.0000   1.0000   1.0000   1.0000   1.0000
     1.0000   1.0000   1.0000   1.0000   1.0000   1.0000   1.0000   1.0000
     1.0000   1.0000   1.0000   1.0000   1.0000   1.0000   1.0000   1.0000
     1.0000   1.0000   1.0000   1.0000   1.0000   1.0000   1.0000   1.0000
     1.0000   1.0000   1.0000   1.0000   1.0000   1.0000   1.0000   1.0000
     1.0000   1.0000   1.0000   1.0000   1.0000   1.0000   1.0000   1.0000
     1.0000   1.0000   1.0000   1.0000   1.0000   1.0000   1.0000   1.0000
     1.0000   1.0000   1.0000   1.0000   1.0000   1.0000   1.0000   1.0000
     1.0000   1.0000   1.0000   1.0000   1.0000   1.0000   1.0000   1.0000
     1.0000   1.0000   1.0000   1.0000   1.0000   1.0000   1.0000   1.0000
     1.0000   1.0000   1.0000   1.0000   1.0000   1.0000   1.0000   1.0000
     1.0000   1.0000   1.0000   1.0000   1.0000   1.0000   1.0000   1.0000
     1.0000   1.0000   1.0000   1.0000   1.0000   1.0000   1.0000   1.0000
     1.0000   1.0000   1.0000   1.0000   1.0000   1.0000   1.0000   1.0000
     1.0000   1.0000   1.0000   1.0000   1.0000   1.0000   1.0000   1.0000
     1.0000   1.0000   1.0000   1.0000   1.0000   1.0000   1.0000   1.0000
     1.0000   1.0000   1.0000   1.0000   1.0000   1.0000   1.0000   1.0000
     1.0000   1.0000   1.0000   1.0000   1.0000   1.0000   1.0000   1.0000
     1.0000   1.0000   1.0000   1.0000   1.0000   1.0000   1.0000   1.0000
     0.0000   0.0000   0.0000   0.0000   0.0000   0.0000   0.0000   0.0000
     0.0000   0.0000   0.0000   0.0000   0.0000   0.0000   0.0000   0.0000
     0.0000   0.0000   0.0000   0.0000   0.0000   0.0000   0.0000   0.0000
     0.0000   0.0000   0.0000   0.0000   0.0000   0.0000   0.0000   0.0000
     0.0000   0.0000   0.0000   0.0000   0.0000   0.0000   0.0000   0.0000
     0.0000   0.0000   0.0000

          k = 0.0000 0.2357 0.0000 (111711 PWs)   bands (ev):

   -19.0212 -19.0108 -18.9973 -18.9853 -18.9849 -18.9814 -18.9803 -18.9745
   -18.9594 -18.9580 -18.9546 -18.9518 -18.9406 -18.9379 -18.9234 -18.9170
   -18.9059 -18.8992 -18.8973 -18.8846 -18.8819 -18.8772 -18.8671 -18.8301
   -18.8225 -18.8048 -18.7527  -9.2895  -9.2695  -9.2649  -9.2505  -9.2289
    -9.2120  -9.1998  -9.1970  -9.1889  -9.1830  -9.1710  -9.1576  -9.1478
    -9.1413  -9.1328  -9.1278  -9.1242  -9.1054  -9.1034  -9.0963  -9.0808
    -9.0659  -9.0475  -9.0415  -9.0311  -9.0150  -8.9982  -5.8886  -5.8834
    -5.8782  -5.8758  -5.8744  -5.8664  -5.8594  -5.8533  -5.8495  -5.8490
    -5.8443  -5.8360  -5.8337  -5.8326  -5.8280  -5.8205  -5.8175  -5.8123
    -5.8119  -5.8106  -5.8072  -5.8047  -5.8038  -5.8010  -5.7986  -5.7972
    -5.7953  -5.7943  -5.7906  -5.7902  -5.7872  -5.7830  -5.7808  -5.7781
    -5.7742  -5.7721  -5.7702  -5.7662  -5.7611  -5.7585  -5.7576  -5.7544
    -5.7525  -5.7502  -5.7491  -5.7454  -5.7429  -5.7405  -5.7375  -5.7333
    -5.7323  -5.7293  -5.7253  -5.7241  -5.7177  -5.7161  -5.7123  -5.7093
    -5.7068  -5.7059  -5.7037  -5.7024  -5.7007  -5.6966  -5.6932  -5.6885
    -5.6865  -5.6828  -5.6782  -5.6767  -5.6625  -5.6528  -5.6519  -5.6439
    -5.6392  -5.6367  -5.6272  -5.6235  -5.5874  -5.5826  -5.5800   0.3690
     0.3727   0.3800   0.3831   0.4511   0.4540   0.4765   0.4859   0.4885
     0.5034   0.5068   0.5168   0.5328   0.5387   0.5469   0.5486   0.5630
     0.5676   0.5738   0.5831   0.5958   0.6180   0.6212   0.6235   0.6337
     0.6459   0.7025   0.7072   0.7100   0.7130   0.7236   0.7274   0.7306
     0.7409   0.7482   0.7506   0.7580   0.7644   0.7682   0.7794   0.7829
     0.7860   0.7902   0.7957   0.8007   0.8021   0.8077   0.8133   0.8156
     0.8202   0.8219   0.8288   0.8332   0.8360   0.8390   0.8435   0.8482
     0.8521   0.8595   0.8610   0.8733   0.8746   0.8794   0.8854   0.8909
     0.9005   0.9305   0.9461   0.9586   0.9619   0.9657   0.9724   0.9786
     0.9831   0.9854   0.9942   1.0013   1.0085   1.0250   1.0559   1.0654
     5.0047   5.6372   5.8043   5.8097   5.8168   5.8237   5.9069   6.0605
     6.2262   6.2336   6.2463   6.2745   6.2883   6.2991   6.3165   6.3248
     6.4041   6.4074   6.4434   6.4538   6.5219   6.5325   6.5467   6.5623
     6.5884   6.5967   6.6037   6.6093   6.6274   6.6600   6.7481   6.7571
     6.7622   6.7692   6.7754   6.7913   6.8032   6.8113   6.8269   6.8412
     7.0074   7.0168   7.0297

     occupation numbers 
     1.0000   1.0000   1.0000   1.0000   1.0000   1.0000   1.0000   1.0000
     1.0000   1.0000   1.0000   1.0000   1.0000   1.0000   1.0000   1.0000
     1.0000   1.0000   1.0000   1.0000   1.0000   1.0000   1.0000   1.0000
     1.0000   1.0000   1.0000   1.0000   1.0000   1.0000   1.0000   1.0000
     1.0000   1.0000   1.0000   1.0000   1.0000   1.0000   1.0000   1.0000
     1.0000   1.0000   1.0000   1.0000   1.0000   1.0000   1.0000   1.0000
     1.0000   1.0000   1.0000   1.0000   1.0000   1.0000   1.0000   1.0000
     1.0000   1.0000   1.0000   1.0000   1.0000   1.0000   1.0000   1.0000
     1.0000   1.0000   1.0000   1.0000   1.0000   1.0000   1.0000   1.0000
     1.0000   1.0000   1.0000   1.0000   1.0000   1.0000   1.0000   1.0000
     1.0000   1.0000   1.0000   1.0000   1.0000   1.0000   1.0000   1.0000
     1.0000   1.0000   1.0000   1.0000   1.0000   1.0000   1.0000   1.0000
     1.0000   1.0000   1.0000   1.0000   1.0000   1.0000   1.0000   1.0000
     1.0000   1.0000   1.0000   1.0000   1.0000   1.0000   1.0000   1.0000
     1.0000   1.0000   1.0000   1.0000   1.0000   1.0000   1.0000   1.0000
     1.0000   1.0000   1.0000   1.0000   1.0000   1.0000   1.0000   1.0000
     1.0000   1.0000   1.0000   1.0000   1.0000   1.0000   1.0000   1.0000
     1.0000   1.0000   1.0000   1.0000   1.0000   1.0000   1.0000   1.0000
     1.0000   1.0000   1.0000   1.0000   1.0000   1.0000   1.0000   1.0000
     1.0000   1.0000   1.0000   1.0000   1.0000   1.0000   1.0000   1.0000
     1.0000   1.0000   1.0000   1.0000   1.0000   1.0000   1.0000   1.0000
     1.0000   1.0000   1.0000   1.0000   1.0000   1.0000   1.0000   1.0000
     1.0000   1.0000   1.0000   1.0000   1.0000   1.0000   1.0000   1.0000
     1.0000   1.0000   1.0000   1.0000   1.0000   1.0000   1.0000   1.0000
     1.0000   1.0000   1.0000   1.0000   1.0000   1.0000   1.0000   1.0000
     1.0000   1.0000   1.0000   1.0000   1.0000   1.0000   1.0000   1.0000
     1.0000   1.0000   1.0000   1.0000   1.0000   1.0000   1.0000   1.0000
     0.0000   0.0000   0.0000   0.0000   0.0000   0.0000   0.0000   0.0000
     0.0000   0.0000   0.0000   0.0000   0.0000   0.0000   0.0000   0.0000
     0.0000   0.0000   0.0000   0.0000   0.0000   0.0000   0.0000   0.0000
     0.0000   0.0000   0.0000   0.0000   0.0000   0.0000   0.0000   0.0000
     0.0000   0.0000   0.0000   0.0000   0.0000   0.0000   0.0000   0.0000
     0.0000   0.0000   0.0000

          k = 0.0000 0.3771 0.2000 (111696 PWs)   bands (ev):

   -19.0212 -19.0108 -18.9973 -18.9853 -18.9849 -18.9814 -18.9803 -18.9745
   -18.9594 -18.9580 -18.9546 -18.9518 -18.9406 -18.9379 -18.9234 -18.9170
   -18.9059 -18.8992 -18.8973 -18.8846 -18.8819 -18.8772 -18.8671 -18.8301
   -18.8225 -18.8048 -18.7527  -9.2895  -9.2692  -9.2650  -9.2505  -9.2287
    -9.2117  -9.2000  -9.1970  -9.1889  -9.1833  -9.1710  -9.1577  -9.1477
    -9.1413  -9.1330  -9.1280  -9.1243  -9.1055  -9.1033  -9.0963  -9.0808
    -9.0659  -9.0474  -9.0420  -9.0304  -9.0149  -8.9981  -5.8921  -5.8879
    -5.8836  -5.8735  -5.8719  -5.8609  -5.8530  -5.8496  -5.8461  -5.8439
    -5.8387  -5.8355  -5.8341  -5.8310  -5.8264  -5.8220  -5.8206  -5.8174
    -5.8156  -5.8111  -5.8100  -5.8070  -5.8036  -5.8015  -5.7989  -5.7970
    -5.7963  -5.7937  -5.7919  -5.7891  -5.7860  -5.7840  -5.7817  -5.7797
    -5.7758  -5.7727  -5.7709  -5.7676  -5.7633  -5.7615  -5.7591  -5.7570
    -5.7553  -5.7534  -5.7479  -5.7437  -5.7417  -5.7404  -5.7387  -5.7323
    -5.7318  -5.7294  -5.7241  -5.7217  -5.7186  -5.7150  -5.7107  -5.7090
    -5.7069  -5.7060  -5.7045  -5.7025  -5.6994  -5.6965  -5.6912  -5.6873
    -5.6848  -5.6823  -5.6786  -5.6773  -5.6606  -5.6535  -5.6510  -5.6446
    -5.6377  -5.6359  -5.6267  -5.6244  -5.5874  -5.5830  -5.5802   0.3150
     0.3690   0.3715   0.4088   0.4328   0.4348   0.4432   0.4535   0.4893
     0.5033   0.5146   0.5258   0.5312   0.5378   0.5414   0.5537   0.5691
     0.5803   0.6003   0.6050   0.6132   0.6167   0.6448   0.6717   0.6829
     0.6859   0.6954   0.7022   0.7073   0.7102   0.7174   0.7249   0.7317
     0.7388   0.7459   0.7523   0.7542   0.7647   0.7731   0.7785   0.7830
     0.7882   0.7918   0.7930   0.8011   0.8041   0.8116   0.8149   0.8202
     0.8220   0.8301   0.8356   0.8409   0.8458   0.8489   0.8524   0.8542
     0.8605   0.8634   0.8701   0.8787   0.8814   0.8858   0.8898   0.9034
     0.9089   0.9146   0.9268   0.9370   0.9464   0.9512   0.9578   0.9614
     0.9672   0.9759   0.9805   0.9928   0.9980   1.0002   1.0381   1.0446
     5.1783   5.6357   5.8376   5.8490   5.8574   5.9429   5.9988   6.0010
     6.0334   6.0500   6.0652   6.1349   6.1719   6.2678   6.3672   6.3970
     6.4113   6.4171   6.4384   6.4638   6.5594   6.5845   6.5892   6.6025
     6.6274   6.6509   6.6613   6.6936   6.7028   6.7241   6.7462   6.7524
     6.7780   6.7830   6.7955   6.8100   6.8119   6.8250   6.8428   6.8777
     6.8847   6.8934   6.9099

     occupation numbers 
     1.0000   1.0000   1.0000   1.0000   1.0000   1.0000   1.0000   1.0000
     1.0000   1.0000   1.0000   1.0000   1.0000   1.0000   1.0000   1.0000
     1.0000   1.0000   1.0000   1.0000   1.0000   1.0000   1.0000   1.0000
     1.0000   1.0000   1.0000   1.0000   1.0000   1.0000   1.0000   1.0000
     1.0000   1.0000   1.0000   1.0000   1.0000   1.0000   1.0000   1.0000
     1.0000   1.0000   1.0000   1.0000   1.0000   1.0000   1.0000   1.0000
     1.0000   1.0000   1.0000   1.0000   1.0000   1.0000   1.0000   1.0000
     1.0000   1.0000   1.0000   1.0000   1.0000   1.0000   1.0000   1.0000
     1.0000   1.0000   1.0000   1.0000   1.0000   1.0000   1.0000   1.0000
     1.0000   1.0000   1.0000   1.0000   1.0000   1.0000   1.0000   1.0000
     1.0000   1.0000   1.0000   1.0000   1.0000   1.0000   1.0000   1.0000
     1.0000   1.0000   1.0000   1.0000   1.0000   1.0000   1.0000   1.0000
     1.0000   1.0000   1.0000   1.0000   1.0000   1.0000   1.0000   1.0000
     1.0000   1.0000   1.0000   1.0000   1.0000   1.0000   1.0000   1.0000
     1.0000   1.0000   1.0000   1.0000   1.0000   1.0000   1.0000   1.0000
     1.0000   1.0000   1.0000   1.0000   1.0000   1.0000   1.0000   1.0000
[...]
     1.0000   1.0000   1.0000   1.0000   1.0000   1.0000   1.0000   1.0000
     1.0000   1.0000   1.0000   1.0000   1.0000   1.0000   1.0000   1.0000
     1.0000   1.0000   1.0000   1.0000   1.0000   1.0000   1.0000   1.0000
     1.0000   1.0000   1.0000   1.0000   1.0000   1.0000   1.0000   1.0000
     1.0000   1.0000   1.0000   1.0000   1.0000   1.0000   1.0000   1.0000
     1.0000   1.0000   1.0000   1.0000   1.0000   1.0000   1.0000   1.0000
     1.0000   1.0000   1.0000   1.0000   1.0000   1.0000   1.0000   1.0000
     1.0000   1.0000   1.0000   1.0000   1.0000   1.0000   1.0000   1.0000
     1.0000   1.0000   1.0000   1.0000   1.0000   1.0000   1.0000   1.0000
     1.0000   1.0000   1.0000   1.0000   1.0000   1.0000   1.0000   1.0000
     1.0000   1.0000   1.0000   1.0000   1.0000   1.0000   1.0000   1.0000
     1.0000   1.0000   1.0000   1.0000   1.0000   1.0000   1.0000   1.0000
     1.0000   1.0000   1.0000   1.0000   1.0000   1.0000   1.0000   1.0000
     0.0000   0.0000   0.0000   0.0000   0.0000   0.0000   0.0000   0.0000
     0.0000   0.0000   0.0000   0.0000   0.0000   0.0000   0.0000   0.0000
     0.0000   0.0000   0.0000   0.0000   0.0000   0.0000   0.0000   0.0000
     0.0000   0.0000   0.0000   0.0000   0.0000   0.0000   0.0000   0.0000
     0.0000   0.0000   0.0000   0.0000   0.0000   0.0000   0.0000   0.0000
     0.0000   0.0000   0.0000

          k =-0.4000-0.3300 0.4000 (111604 PWs)   bands (ev):

   -19.0212 -19.0108 -18.9973 -18.9852 -18.9849 -18.9814 -18.9803 -18.9745
   -18.9594 -18.9580 -18.9546 -18.9518 -18.9406 -18.9379 -18.9234 -18.9170
   -18.9059 -18.8992 -18.8973 -18.8846 -18.8819 -18.8772 -18.8671 -18.8301
   -18.8225 -18.8048 -18.7527  -9.2895  -9.2689  -9.2652  -9.2505  -9.2285
    -9.2112  -9.1995  -9.1980  -9.1883  -9.1842  -9.1708  -9.1577  -9.1478
    -9.1412  -9.1339  -9.1273  -9.1247  -9.1051  -9.1034  -9.0973  -9.0805
    -9.0659  -9.0472  -9.0414  -9.0308  -9.0147  -8.9980  -5.8998  -5.8987
    -5.8761  -5.8698  -5.8656  -5.8628  -5.8580  -5.8515  -5.8466  -5.8429
    -5.8420  -5.8365  -5.8295  -5.8262  -5.8234  -5.8229  -5.8194  -5.8139
    -5.8126  -5.8125  -5.8112  -5.8079  -5.8059  -5.8025  -5.8004  -5.7996
    -5.7967  -5.7924  -5.7915  -5.7862  -5.7841  -5.7830  -5.7778  -5.7765
    -5.7750  -5.7723  -5.7714  -5.7683  -5.7642  -5.7634  -5.7596  -5.7572
    -5.7537  -5.7499  -5.7485  -5.7454  -5.7415  -5.7408  -5.7370  -5.7351
    -5.7315  -5.7286  -5.7249  -5.7222  -5.7208  -5.7144  -5.7121  -5.7096
    -5.7088  -5.7070  -5.7033  -5.7010  -5.7004  -5.6948  -5.6904  -5.6873
    -5.6857  -5.6842  -5.6785  -5.6769  -5.6609  -5.6536  -5.6514  -5.6448
    -5.6391  -5.6351  -5.6279  -5.6232  -5.5875  -5.5836  -5.5804   0.3359
     0.3400   0.3859   0.3946   0.4368   0.4411   0.4537   0.4604   0.4713
     0.4748   0.4932   0.5153   0.5255   0.5351   0.5380   0.5493   0.5955
     0.5996   0.6138   0.6291   0.6334   0.6481   0.6559   0.6639   0.6780
     0.6944   0.6980   0.7053   0.7117   0.7138   0.7202   0.7280   0.7349
     0.7376   0.7417   0.7488   0.7537   0.7589   0.7623   0.7697   0.7769
     0.7803   0.7833   0.7888   0.7970   0.8007   0.8073   0.8116   0.8167
     0.8196   0.8230   0.8284   0.8349   0.8380   0.8400   0.8481   0.8594
     0.8620   0.8667   0.8732   0.8866   0.8898   0.8947   0.9004   0.9107
     0.9137   0.9176   0.9298   0.9333   0.9408   0.9463   0.9534   0.9578
     0.9603   0.9707   0.9861   0.9940   1.0037   1.0123   1.0188   1.0342
     5.4648   5.6761   5.6978   5.7090   5.7294   5.8070   5.9581   6.1486
     6.1543   6.1890   6.1991   6.2582   6.2957   6.3089   6.3280   6.3524
     6.3751   6.3897   6.4091   6.4256   6.4382   6.4489   6.4570   6.5072
     6.5254   6.5495   6.5568   6.5744   6.5819   6.6391   6.7102   6.7845
     6.8165   6.8257   6.8395   6.8493   6.8587   6.8620   6.8756   6.8801
     6.9853   6.9991   7.0264

     occupation numbers 
     1.0000   1.0000   1.0000   1.0000   1.0000   1.0000   1.0000   1.0000
     1.0000   1.0000   1.0000   1.0000   1.0000   1.0000   1.0000   1.0000
     1.0000   1.0000   1.0000   1.0000   1.0000   1.0000   1.0000   1.0000
     1.0000   1.0000   1.0000   1.0000   1.0000   1.0000   1.0000   1.0000
     1.0000   1.0000   1.0000   1.0000   1.0000   1.0000   1.0000   1.0000
     1.0000   1.0000   1.0000   1.0000   1.0000   1.0000   1.0000   1.0000
     1.0000   1.0000   1.0000   1.0000   1.0000   1.0000   1.0000   1.0000
     1.0000   1.0000   1.0000   1.0000   1.0000   1.0000   1.0000   1.0000
     1.0000   1.0000   1.0000   1.0000   1.0000   1.0000   1.0000   1.0000
     1.0000   1.0000   1.0000   1.0000   1.0000   1.0000   1.0000   1.0000
     1.0000   1.0000   1.0000   1.0000   1.0000   1.0000   1.0000   1.0000
     1.0000   1.0000   1.0000   1.0000   1.0000   1.0000   1.0000   1.0000
     1.0000   1.0000   1.0000   1.0000   1.0000   1.0000   1.0000   1.0000
     1.0000   1.0000   1.0000   1.0000   1.0000   1.0000   1.0000   1.0000
     1.0000   1.0000   1.0000   1.0000   1.0000   1.0000   1.0000   1.0000
     1.0000   1.0000   1.0000   1.0000   1.0000   1.0000   1.0000   1.0000
     1.0000   1.0000   1.0000   1.0000   1.0000   1.0000   1.0000   1.0000
     1.0000   1.0000   1.0000   1.0000   1.0000   1.0000   1.0000   1.0000
     1.0000   1.0000   1.0000   1.0000   1.0000   1.0000   1.0000   1.0000
     1.0000   1.0000   1.0000   1.0000   1.0000   1.0000   1.0000   1.0000
     1.0000   1.0000   1.0000   1.0000   1.0000   1.0000   1.0000   1.0000
     1.0000   1.0000   1.0000   1.0000   1.0000   1.0000   1.0000   1.0000
     1.0000   1.0000   1.0000   1.0000   1.0000   1.0000   1.0000   1.0000
     1.0000   1.0000   1.0000   1.0000   1.0000   1.0000   1.0000   1.0000
     1.0000   1.0000   1.0000   1.0000   1.0000   1.0000   1.0000   1.0000
     1.0000   1.0000   1.0000   1.0000   1.0000   1.0000   1.0000   1.0000
     1.0000   1.0000   1.0000   1.0000   1.0000   1.0000   1.0000   1.0000
     0.0000   0.0000   0.0000   0.0000   0.0000   0.0000   0.0000   0.0000
     0.0000   0.0000   0.0000   0.0000   0.0000   0.0000   0.0000   0.0000
     0.0000   0.0000   0.0000   0.0000   0.0000   0.0000   0.0000   0.0000
     0.0000   0.0000   0.0000   0.0000   0.0000   0.0000   0.0000   0.0000
     0.0000   0.0000   0.0000   0.0000   0.0000   0.0000   0.0000   0.0000
     0.0000   0.0000   0.0000

          k =-0.4000 0.3300-0.4000 (111604 PWs)   bands (ev):

   -19.0212 -19.0108 -18.9973 -18.9852 -18.9849 -18.9814 -18.9803 -18.9745
   -18.9594 -18.9580 -18.9546 -18.9518 -18.9406 -18.9379 -18.9234 -18.9170
   -18.9059 -18.8992 -18.8973 -18.8846 -18.8819 -18.8772 -18.8671 -18.8301
   -18.8225 -18.8048 -18.7527  -9.2894  -9.2689  -9.2653  -9.2506  -9.2285
    -9.2115  -9.1994  -9.1975  -9.1884  -9.1844  -9.1709  -9.1574  -9.1478
    -9.1412  -9.1332  -9.1279  -9.1249  -9.1054  -9.1033  -9.0968  -9.0809
    -9.0657  -9.0472  -9.0414  -9.0307  -9.0148  -8.9979  -5.9009  -5.8978
    -5.8779  -5.8692  -5.8648  -5.8636  -5.8546  -5.8519  -5.8477  -5.8425
    -5.8402  -5.8364  -5.8321  -5.8263  -5.8246  -5.8218  -5.8184  -5.8156
    -5.8145  -5.8134  -5.8115  -5.8079  -5.8062  -5.8030  -5.7996  -5.7978
    -5.7960  -5.7936  -5.7900  -5.7878  -5.7819  -5.7803  -5.7774  -5.7765
    -5.7735  -5.7725  -5.7706  -5.7696  -5.7654  -5.7621  -5.7604  -5.7583
    -5.7540  -5.7512  -5.7491  -5.7461  -5.7432  -5.7409  -5.7395  -5.7358
    -5.7310  -5.7263  -5.7249  -5.7210  -5.7176  -5.7141  -5.7120  -5.7105
    -5.7080  -5.7064  -5.7043  -5.7022  -5.6995  -5.6951  -5.6915  -5.6869
    -5.6853  -5.6846  -5.6786  -5.6769  -5.6620  -5.6531  -5.6506  -5.6451
    -5.6386  -5.6349  -5.6277  -5.6236  -5.5876  -5.5833  -5.5807   0.3327
     0.3428   0.3858   0.3966   0.4368   0.4408   0.4482   0.4644   0.4705
     0.4798   0.4859   0.5144   0.5300   0.5367   0.5435   0.5453   0.5967
     0.5995   0.6125   0.6259   0.6330   0.6425   0.6533   0.6714   0.6773
     0.6953   0.7014   0.7047   0.7108   0.7154   0.7222   0.7256   0.7348
     0.7377   0.7433   0.7459   0.7492   0.7566   0.7645   0.7700   0.7769
     0.7819   0.7866   0.7879   0.7970   0.8002   0.8058   0.8084   0.8177
     0.8206   0.8237   0.8268   0.8326   0.8372   0.8392   0.8518   0.8592
     0.8622   0.8688   0.8748   0.8878   0.8880   0.8932   0.9035   0.9094
     0.9130   0.9209   0.9272   0.9370   0.9412   0.9431   0.9515   0.9578
     0.9627   0.9705   0.9873   0.9952   1.0018   1.0125   1.0175   1.0336
     5.4661   5.6774   5.6890   5.7103   5.7304   5.8109   5.9558   6.1521
     6.1652   6.1805   6.1988   6.2622   6.2985   6.3046   6.3301   6.3497
     6.3727   6.3848   6.3977   6.4210   6.4363   6.4480   6.4584   6.5127
     6.5398   6.5511   6.5599   6.5747   6.5812   6.6372   6.7088   6.7765
     6.8199   6.8256   6.8358   6.8456   6.8584   6.8682   6.8709   6.8898
     6.9871   6.9947   7.0278

     occupation numbers 
     1.0000   1.0000   1.0000   1.0000   1.0000   1.0000   1.0000   1.0000
     1.0000   1.0000   1.0000   1.0000   1.0000   1.0000   1.0000   1.0000
     1.0000   1.0000   1.0000   1.0000   1.0000   1.0000   1.0000   1.0000
     1.0000   1.0000   1.0000   1.0000   1.0000   1.0000   1.0000   1.0000
     1.0000   1.0000   1.0000   1.0000   1.0000   1.0000   1.0000   1.0000
     1.0000   1.0000   1.0000   1.0000   1.0000   1.0000   1.0000   1.0000
     1.0000   1.0000   1.0000   1.0000   1.0000   1.0000   1.0000   1.0000
     1.0000   1.0000   1.0000   1.0000   1.0000   1.0000   1.0000   1.0000
     1.0000   1.0000   1.0000   1.0000   1.0000   1.0000   1.0000   1.0000
     1.0000   1.0000   1.0000   1.0000   1.0000   1.0000   1.0000   1.0000
     1.0000   1.0000   1.0000   1.0000   1.0000   1.0000   1.0000   1.0000
     1.0000   1.0000   1.0000   1.0000   1.0000   1.0000   1.0000   1.0000
     1.0000   1.0000   1.0000   1.0000   1.0000   1.0000   1.0000   1.0000
     1.0000   1.0000   1.0000   1.0000   1.0000   1.0000   1.0000   1.0000
     1.0000   1.0000   1.0000   1.0000   1.0000   1.0000   1.0000   1.0000
     1.0000   1.0000   1.0000   1.0000   1.0000   1.0000   1.0000   1.0000
     1.0000   1.0000   1.0000   1.0000   1.0000   1.0000   1.0000   1.0000
     1.0000   1.0000   1.0000   1.0000   1.0000   1.0000   1.0000   1.0000
     1.0000   1.0000   1.0000   1.0000   1.0000   1.0000   1.0000   1.0000
     1.0000   1.0000   1.0000   1.0000   1.0000   1.0000   1.0000   1.0000
     1.0000   1.0000   1.0000   1.0000   1.0000   1.0000   1.0000   1.0000
     1.0000   1.0000   1.0000   1.0000   1.0000   1.0000   1.0000   1.0000
     1.0000   1.0000   1.0000   1.0000   1.0000   1.0000   1.0000   1.0000
     1.0000   1.0000   1.0000   1.0000   1.0000   1.0000   1.0000   1.0000
     1.0000   1.0000   1.0000   1.0000   1.0000   1.0000   1.0000   1.0000
     1.0000   1.0000   1.0000   1.0000   1.0000   1.0000   1.0000   1.0000
     1.0000   1.0000   1.0000   1.0000   1.0000   1.0000   1.0000   1.0000
     0.0000   0.0000   0.0000   0.0000   0.0000   0.0000   0.0000   0.0000
     0.0000   0.0000   0.0000   0.0000   0.0000   0.0000   0.0000   0.0000
     0.0000   0.0000   0.0000   0.0000   0.0000   0.0000   0.0000   0.0000
     0.0000   0.0000   0.0000   0.0000   0.0000   0.0000   0.0000   0.0000
     0.0000   0.0000   0.0000   0.0000   0.0000   0.0000   0.0000   0.0000
     0.0000   0.0000   0.0000

          k = 0.4000-0.3300-0.4000 (111604 PWs)   bands (ev):

   -19.0212 -19.0108 -18.9973 -18.9852 -18.9849 -18.9814 -18.9803 -18.9745
   -18.9594 -18.9580 -18.9546 -18.9518 -18.9406 -18.9379 -18.9234 -18.9170
   -18.9059 -18.8992 -18.8973 -18.8846 -18.8819 -18.8772 -18.8671 -18.8301
   -18.8225 -18.8048 -18.7527  -9.2894  -9.2689  -9.2652  -9.2506  -9.2285
    -9.2116  -9.1994  -9.1973  -9.1884  -9.1844  -9.1709  -9.1575  -9.1478
    -9.1412  -9.1331  -9.1281  -9.1249  -9.1056  -9.1032  -9.0963  -9.0810
    -9.0658  -9.0472  -9.0415  -9.0306  -9.0148  -8.9980  -5.8999  -5.8988
    -5.8784  -5.8679  -5.8666  -5.8620  -5.8552  -5.8503  -5.8478  -5.8437
    -5.8412  -5.8372  -5.8322  -5.8246  -5.8235  -5.8219  -5.8186  -5.8164
    -5.8141  -5.8120  -5.8096  -5.8070  -5.8058  -5.8031  -5.8008  -5.7982
    -5.7966  -5.7945  -5.7920  -5.7879  -5.7828  -5.7803  -5.7781  -5.7774
    -5.7747  -5.7725  -5.7708  -5.7678  -5.7644  -5.7628  -5.7607  -5.7573
    -5.7540  -5.7500  -5.7482  -5.7457  -5.7417  -5.7407  -5.7395  -5.7349
    -5.7313  -5.7285  -5.7250  -5.7240  -5.7184  -5.7147  -5.7112  -5.7098
    -5.7075  -5.7066  -5.7032  -5.7008  -5.6996  -5.6957  -5.6911  -5.6872
    -5.6851  -5.6834  -5.6797  -5.6773  -5.6608  -5.6542  -5.6517  -5.6448
    -5.6381  -5.6350  -5.6271  -5.6245  -5.5875  -5.5834  -5.5806   0.3367
     0.3394   0.3852   0.3942   0.4380   0.4415   0.4490   0.4665   0.4677
     0.4814   0.4855   0.5171   0.5294   0.5333   0.5406   0.5470   0.5977
     0.5990   0.6119   0.6298   0.6330   0.6465   0.6502   0.6682   0.6760
     0.6959   0.7010   0.7038   0.7086   0.7118   0.7195   0.7296   0.7341
     0.7401   0.7460   0.7496   0.7512   0.7581   0.7628   0.7713   0.7757
     0.7810   0.7860   0.7914   0.7964   0.8010   0.8061   0.8104   0.8163
     0.8201   0.8215   0.8253   0.8319   0.8368   0.8434   0.8510   0.8595
     0.8638   0.8684   0.8759   0.8827   0.8863   0.8950   0.9005   0.9075
     0.9139   0.9233   0.9279   0.9327   0.9381   0.9479   0.9528   0.9550
     0.9624   0.9712   0.9884   0.9911   1.0088   1.0108   1.0171   1.0346
     5.4660   5.6768   5.6970   5.7023   5.7297   5.8116   5.9584   6.1442
     6.1636   6.1916   6.1953   6.2639   6.2937   6.3014   6.3343   6.3419
     6.3713   6.3976   6.4027   6.4238   6.4381   6.4453   6.4615   6.5122
     6.5283   6.5451   6.5637   6.5733   6.5837   6.6398   6.7056   6.7840
     6.8156   6.8260   6.8364   6.8426   6.8626   6.8671   6.8771   6.8863
     6.9880   6.9941   7.0241

     occupation numbers 
     1.0000   1.0000   1.0000   1.0000   1.0000   1.0000   1.0000   1.0000
     1.0000   1.0000   1.0000   1.0000   1.0000   1.0000   1.0000   1.0000
     1.0000   1.0000   1.0000   1.0000   1.0000   1.0000   1.0000   1.0000
     1.0000   1.0000   1.0000   1.0000   1.0000   1.0000   1.0000   1.0000
     1.0000   1.0000   1.0000   1.0000   1.0000   1.0000   1.0000   1.0000
     1.0000   1.0000   1.0000   1.0000   1.0000   1.0000   1.0000   1.0000
     1.0000   1.0000   1.0000   1.0000   1.0000   1.0000   1.0000   1.0000
     1.0000   1.0000   1.0000   1.0000   1.0000   1.0000   1.0000   1.0000
     1.0000   1.0000   1.0000   1.0000   1.0000   1.0000   1.0000   1.0000
     1.0000   1.0000   1.0000   1.0000   1.0000   1.0000   1.0000   1.0000
     1.0000   1.0000   1.0000   1.0000   1.0000   1.0000   1.0000   1.0000
     1.0000   1.0000   1.0000   1.0000   1.0000   1.0000   1.0000   1.0000
     1.0000   1.0000   1.0000   1.0000   1.0000   1.0000   1.0000   1.0000
     1.0000   1.0000   1.0000   1.0000   1.0000   1.0000   1.0000   1.0000
     1.0000   1.0000   1.0000   1.0000   1.0000   1.0000   1.0000   1.0000
     1.0000   1.0000   1.0000   1.0000   1.0000   1.0000   1.0000   1.0000
     1.0000   1.0000   1.0000   1.0000   1.0000   1.0000   1.0000   1.0000
     1.0000   1.0000   1.0000   1.0000   1.0000   1.0000   1.0000   1.0000
     1.0000   1.0000   1.0000   1.0000   1.0000   1.0000   1.0000   1.0000
     1.0000   1.0000   1.0000   1.0000   1.0000   1.0000   1.0000   1.0000
     1.0000   1.0000   1.0000   1.0000   1.0000   1.0000   1.0000   1.0000
     1.0000   1.0000   1.0000   1.0000   1.0000   1.0000   1.0000   1.0000
     1.0000   1.0000   1.0000   1.0000   1.0000   1.0000   1.0000   1.0000
     1.0000   1.0000   1.0000   1.0000   1.0000   1.0000   1.0000   1.0000
     1.0000   1.0000   1.0000   1.0000   1.0000   1.0000   1.0000   1.0000
     1.0000   1.0000   1.0000   1.0000   1.0000   1.0000   1.0000   1.0000
     1.0000   1.0000   1.0000   1.0000   1.0000   1.0000   1.0000   1.0000
     0.0000   0.0000   0.0000   0.0000   0.0000   0.0000   0.0000   0.0000
     0.0000   0.0000   0.0000   0.0000   0.0000   0.0000   0.0000   0.0000
     0.0000   0.0000   0.0000   0.0000   0.0000   0.0000   0.0000   0.0000
     0.0000   0.0000   0.0000   0.0000   0.0000   0.0000   0.0000   0.0000
     0.0000   0.0000   0.0000   0.0000   0.0000   0.0000   0.0000   0.0000
     0.0000   0.0000   0.0000

     the Fermi energy is     2.5730 ev

!    total energy              =   -3481.57417769 Ry
     Harris-Foulkes estimate   =   -3481.57417767 Ry
     estimated scf accuracy    <       0.00000024 Ry

     The total energy is the sum of the following terms:

     one-electron contribution =    -319.27193617 Ry
     hartree contribution      =     299.21424708 Ry
     xc contribution           =   -2124.99944579 Ry
     ewald contribution        =   -1336.51704280 Ry
     smearing contrib. (-TS)   =       0.00000000 Ry

     convergence has been achieved in  25 iterations

     Writing output data file aiida_.save
 
     init_run     :     65.87s CPU     68.14s WALL (       1 calls)
     electrons    :   3098.66s CPU   3222.72s WALL (       1 calls)

     Called by init_run:
     wfcinit      :     54.11s CPU     54.94s WALL (       1 calls)
     wfcinit:atom :      0.13s CPU      0.19s WALL (       4 calls)
     wfcinit:wfcr :     51.89s CPU     52.58s WALL (       4 calls)
     potinit      :      1.76s CPU      1.86s WALL (       1 calls)

     Called by electrons:
     c_bands      :   2545.12s CPU   2624.63s WALL (      26 calls)
     sum_band     :    453.61s CPU    483.80s WALL (      26 calls)
     v_of_rho     :     21.88s CPU     23.17s WALL (      26 calls)
     v_h          :      1.00s CPU      1.06s WALL (      26 calls)
     v_xc         :     20.88s CPU     22.10s WALL (      26 calls)
     newd         :     61.00s CPU     73.18s WALL (      26 calls)
     mix_rho      :      3.17s CPU      3.48s WALL (      26 calls)

     Called by c_bands:
     init_us_2    :     15.03s CPU     15.09s WALL (     212 calls)
     cegterg      :   1847.12s CPU   1897.69s WALL (     104 calls)

     Called by sum_band:
     sum_band:bec :      0.71s CPU      0.71s WALL (     104 calls)
     addusdens    :     69.15s CPU     96.74s WALL (      26 calls)

     Called by *egterg:
     h_psi        :   1395.15s CPU   1402.10s WALL (     409 calls)
     s_psi        :    141.06s CPU    141.09s WALL (     409 calls)
     g_psi        :      2.30s CPU      2.30s WALL (     301 calls)
     cdiaghg      :    130.73s CPU    137.99s WALL (     401 calls)
     cegterg:over :     77.78s CPU     77.93s WALL (     301 calls)
     cegterg:upda :     70.49s CPU     70.81s WALL (     301 calls)
     cegterg:last :     31.99s CPU     32.14s WALL (     104 calls)
     cdiaghg:chol :      4.09s CPU      5.37s WALL (     401 calls)
     cdiaghg:inve :      1.13s CPU      1.40s WALL (     401 calls)
     cdiaghg:para :      7.91s CPU      9.65s WALL (     802 calls)

     Called by h_psi:
     h_psi:pot    :   1391.81s CPU   1398.75s WALL (     409 calls)
     h_psi:calbec :    123.97s CPU    124.08s WALL (     409 calls)
     vloc_psi     :   1125.55s CPU   1132.34s WALL (     409 calls)
     add_vuspsi   :    142.28s CPU    142.32s WALL (     409 calls)

     General routines
     calbec       :    178.35s CPU    178.51s WALL (     513 calls)
     fft          :     13.62s CPU     15.13s WALL (     416 calls)
     ffts         :      0.81s CPU      0.86s WALL (      52 calls)
     fftw         :   1231.10s CPU   1237.90s WALL (  145642 calls)
     interpolate  :      3.15s CPU      3.38s WALL (      52 calls)
     davcio       :      0.00s CPU      0.17s WALL (       4 calls)
 
     Parallel routines
     fft_scatter  :    219.80s CPU    223.00s WALL (  146110 calls)
 
     PWSCF        : 53m13.55s CPU    56m17.94s WALL

 
   This run was terminated on:  14:57: 0   2May2017            

=------------------------------------------------------------------------------=
   JOB DONE.
=------------------------------------------------------------------------------=
