
     Program PWSCF v.6.1 (svn rev. 13369) starts on  2May2017 at 13:59: 1 

     This program is part of the open-source Quantum ESPRESSO suite
     for quantum simulation of materials; please cite
         "P. Giannozzi et al., J. Phys.:Condens. Matter 21 395502 (2009);
          URL http://www.quantum-espresso.org", 
     in publications or presentations arising from this work. More details at
     http://www.quantum-espresso.org/quote

     Parallel version (MPI), running on   512 processors
     K-points division:     npool     =      64
     R & G space division:  proc/nbgrp/npool/nimage =       8
     Reading input from aiida.in

     Current dimensions of program PWSCF are:
     Max number of different atomic species (ntypx) = 10
     Max number of k-points (npk) =  40000
     Max angular momentum in pseudopotentials (lmaxx) =  3

     Subspace diagonalization in iterative solution of the eigenvalue problem:
     a serial algorithm will be used

 
     Parallelization info
     --------------------
     sticks:   dense  smooth     PW     G-vecs:    dense   smooth      PW
     Min        3054    1529    410               315778   111588   15464
     Max        3055    1530    411               315784   111591   15465
     Sum       24439   12235   3283              2526263   892711  123717
 


     bravais-lattice index     =            0
     lattice parameter (alat)  =      31.4056  a.u.
     unit-cell volume          =   21903.1443 (a.u.)^3
     number of atoms/cell      =           54
     number of atomic types    =            2
     number of electrons       =       432.00
     number of Kohn-Sham states=          259
     kinetic-energy cutoff     =      45.0000  Ry
     charge density cutoff     =     360.0000  Ry
     convergence threshold     =      5.4E-07
     mixing beta               =       0.3500
     number of iterations used =            8  plain     mixing
     Exchange-correlation      = SLA  PW   PBE  PBE ( 1  4  3  4 0 0)

     celldm(1)=  31.405604  celldm(2)=   0.000000  celldm(3)=   0.000000
     celldm(4)=   0.000000  celldm(5)=   0.000000  celldm(6)=   0.000000

     crystal axes: (cart. coord. in units of alat)
               a(1) = (   1.000000   0.000000   0.000000 )  
               a(2) = (  -0.500000   0.707107  -0.500000 )  
               a(3) = (   0.000000   0.000000   1.000000 )  

     reciprocal axes: (cart. coord. in units 2 pi/alat)
               b(1) = (  1.000000  0.707107  0.000000 )  
               b(2) = (  0.000000  1.414214  0.000000 )  
               b(3) = (  0.000000  0.707107  1.000000 )  


     PseudoPot. # 1 for Cs read from file:
     ./pseudo/Cs_pbe_v1.uspp.F.UPF
     MD5 check sum: 3476d69cb178dfad3ffaa59df4e07ca4
     Pseudo is Ultrasoft + core correction, Zval =  9.0
     Generated by new atomic code, or converted to UPF format
     Using radial grid of  905 points,  6 beta functions with: 
                l(1) =   0
                l(2) =   0
                l(3) =   1
                l(4) =   1
                l(5) =   2
                l(6) =   2
     Q(r) pseudized with  6 coefficients,  rinner =    1.500   1.500   1.500
                                                       1.500   1.500

     PseudoPot. # 2 for I  read from file:
     ./pseudo/I_pbe_v1.uspp.F.UPF
     MD5 check sum: 51366c2fb896752a147e77acbb9f6bcb
     Pseudo is Ultrasoft + core correction, Zval =  7.0
     Generated by new atomic code, or converted to UPF format
     Using radial grid of  893 points,  6 beta functions with: 
                l(1) =   0
                l(2) =   0
                l(3) =   1
                l(4) =   1
                l(5) =   2
                l(6) =   2
     Q(r) pseudized with  8 coefficients,  rinner =    1.500   1.500   1.500
                                                       1.500   1.500

     atomic species   valence    mass     pseudopotential
        Cs             9.00   132.90545     Cs( 1.00)
        I              7.00   126.90447     I ( 1.00)

     No symmetry found


                                    s                        frac. trans.

      isym =  1     identity                                     

 cryst.   s( 1) = (     1          0          0      )
                  (     0          1          0      )
                  (     0          0          1      )

 cart.    s( 1) = (  1.0000000  0.0000000  0.0000000 )
                  (  0.0000000  1.0000000  0.0000000 )
                  (  0.0000000  0.0000000  1.0000000 )


   Cartesian axes

     site n.     atom                  positions (alat units)
         1           Cs  tau(   1) = (   0.5017165   0.7026808   0.4992023  )
         2           Cs  tau(   2) = (   0.4960805   0.7058427  -0.1691590  )
         3           Cs  tau(   3) = (   0.4973839   0.7031255   0.1659755  )
         4           Cs  tau(   4) = (   0.8318677   0.2320059  -0.1639536  )
         5           Cs  tau(   5) = (   0.8335526   0.2314284   0.1644626  )
         6           Cs  tau(   6) = (  -0.1676596   0.2398332   0.5022631  )
         7           Cs  tau(   7) = (  -0.3338764   0.4754186  -0.3307326  )
         8           Cs  tau(   8) = (  -0.3290218   0.4693873   0.0007166  )
         9           Cs  tau(   9) = (   0.6633029   0.4748157   0.3338028  )
        10           Cs  tau(  10) = (   0.3302503   0.0029377   0.9977557  )
        11           Cs  tau(  11) = (  -0.1711473   0.7070771  -0.1649074  )
        12           Cs  tau(  12) = (   0.3307027   0.0023636   0.6699324  )
        13           Cs  tau(  13) = (   0.1681891   0.2402687  -0.1666184  )
        14           Cs  tau(  14) = (   0.1658874   0.2310087   0.1659350  )
        15           Cs  tau(  15) = (   0.1714200   0.2363076   0.4995404  )
        16           Cs  tau(  16) = (  -0.0016889   0.4686185  -0.3297897  )
        17           Cs  tau(  17) = (  -0.0015722   0.4670557  -0.0013371  )
        18           Cs  tau(  18) = (   0.0013419   0.4737555   0.3373138  )
        19           Cs  tau(  19) = (   0.6651916   0.0025960   0.0037759  )
        20           Cs  tau(  20) = (   0.6668646   0.0025886   0.3373870  )
        21           Cs  tau(  21) = (   0.6687750   0.0043255   0.6667979  )
        22           Cs  tau(  22) = (   0.5037513   0.2364122   0.8304015  )
        23           Cs  tau(  23) = (   0.5024832   0.2354094   0.1625533  )
        24           Cs  tau(  24) = (   0.4958562   0.2376343   0.5015060  )
        25           Cs  tau(  25) = (   0.3371380   0.4726397  -0.3306555  )
        26           Cs  tau(  26) = (   0.3365983   0.4737141  -0.0026791  )
        27           Cs  tau(  27) = (   0.3372565   0.4725517   0.3307907  )
        28           I   tau(  28) = (   0.1671386   0.0047885   0.1665269  )
        29           I   tau(  29) = (   0.1626246   0.0001134   0.5026117  )
        30           I   tau(  30) = (   0.1632568   0.0033752   0.8337242  )
        31           I   tau(  31) = (   0.0026378   0.2396704   0.0006840  )
        32           I   tau(  32) = (   0.0014809   0.2322060   0.3303745  )
        33           I   tau(  33) = (   0.0003852   0.2364829   0.6714010  )
        34           I   tau(  34) = (  -0.1666704   0.4711793  -0.1714751  )
        35           I   tau(  35) = (  -0.1648226   0.4696941   0.1625623  )
        36           I   tau(  36) = (  -0.1627187   0.4731941   0.5020935  )
        37           I   tau(  37) = (   0.0039733   0.7060076  -0.3308480  )
        38           I   tau(  38) = (   0.4978450   0.0042372   0.4992420  )
        39           I   tau(  39) = (   0.5032656   0.0008918   0.8367556  )
        40           I   tau(  40) = (   0.3299398   0.2354726  -0.0034064  )
        41           I   tau(  41) = (   0.3365395   0.2362897   0.3368755  )
        42           I   tau(  42) = (   0.3302425   0.2322312   0.6679200  )
        43           I   tau(  43) = (   0.1626960   0.4741192  -0.1668570  )
        44           I   tau(  44) = (   0.1630565   0.4731238   0.1639866  )
        45           I   tau(  45) = (   0.1638568   0.4714577   0.5039082  )
        46           I   tau(  46) = (   0.3370183   0.7043389  -0.3347233  )
        47           I   tau(  47) = (   0.3289947   0.7050906   0.0005328  )
        48           I   tau(  48) = (   0.8351171   0.0030861   0.8300982  )
        49           I   tau(  49) = (   0.6623487   0.2335745  -0.0000096  )
        50           I   tau(  50) = (   0.6653641   0.2335697   0.3374476  )
        51           I   tau(  51) = (   0.6642059   0.2397299   0.6657209  )
        52           I   tau(  52) = (   0.5030050   0.4750142  -0.1656119  )
        53           I   tau(  53) = (   0.5043957   0.4733523   0.1664296  )
        54           I   tau(  54) = (   0.4984780   0.4757569   0.4986171  )

   Crystallographic axes

     site n.     atom                  positions (cryst. coord.)
         1           Cs  tau(   1) = (  0.9985868  0.9937407  0.9960726  )
         2           Cs  tau(   2) = (  0.9951867  0.9982123  0.3299471  )
         3           Cs  tau(   3) = (  0.9945687  0.9943697  0.6631603  )
         4           Cs  tau(   4) = (  0.9959206  0.3281058  0.0000993  )
         5           Cs  tau(   5) = (  0.9971971  0.3272891  0.3281072  )
         6           Cs  tau(   6) = (  0.0019280  0.3391753  0.6718507  )
         7           Cs  tau(   7) = (  0.0022954  0.6723435  0.0054392  )
         8           Cs  tau(   8) = (  0.0028851  0.6638138  0.3326235  )
         9           Cs  tau(   9) = (  0.9990483  0.6714908  0.6695483  )
        10           Cs  tau(  10) = (  0.3323275  0.0041545  0.9998330  )
        11           Cs  tau(  11) = (  0.3288317  0.9999580  0.3350716  )
        12           Cs  tau(  12) = (  0.3323740  0.0033426  0.6716037  )
        13           Cs  tau(  13) = (  0.3380847  0.3397912  0.0032772  )
        14           Cs  tau(  14) = (  0.3292352  0.3266957  0.3292828  )
        15           Cs  tau(  15) = (  0.3385147  0.3341894  0.6666351  )
        16           Cs  tau(  16) = (  0.3296744  0.6627266  0.0015736  )
        17           Cs  tau(  17) = (  0.3286860  0.6605165  0.3289212  )
        18           Cs  tau(  18) = (  0.3363376  0.6699914  0.6723095  )
        19           Cs  tau(  19) = (  0.6670272  0.0036712  0.0056115  )
        20           Cs  tau(  20) = (  0.6686950  0.0036609  0.3392174  )
        21           Cs  tau(  21) = (  0.6718336  0.0061171  0.6698564  )
        22           Cs  tau(  22) = (  0.6709200  0.3343373  0.9975701  )
        23           Cs  tau(  23) = (  0.6689428  0.3329192  0.3290129  )
        24           Cs  tau(  24) = (  0.6638890  0.3360656  0.6695388  )
        25           Cs  tau(  25) = (  0.6713448  0.6684135  0.0035512  )
        26           Cs  tau(  26) = (  0.6715648  0.6699330  0.3322874  )
        27           Cs  tau(  27) = (  0.6714010  0.6682890  0.6649352  )
        28           I   tau(  28) = (  0.1705246  0.0067720  0.1699129  )
        29           I   tau(  29) = (  0.1627048  0.0001603  0.5026919  )
        30           I   tau(  30) = (  0.1656435  0.0047733  0.8361108  )
        31           I   tau(  31) = (  0.1721104  0.3389451  0.1701566  )
        32           I   tau(  32) = (  0.1656753  0.3283888  0.4945689  )
        33           I   tau(  33) = (  0.1676038  0.3344373  0.8386197  )
        34           I   tau(  34) = (  0.1665037  0.6663482  0.1616990  )
        35           I   tau(  35) = (  0.1673013  0.6642478  0.4946862  )
        36           I   tau(  36) = (  0.1718801  0.6691975  0.8366922  )
        37           I   tau(  37) = (  0.5031961  0.9984456  0.1683748  )
        38           I   tau(  38) = (  0.5008411  0.0059923  0.5022382  )
        39           I   tau(  39) = (  0.5038963  0.0012613  0.8373863  )
        40           I   tau(  40) = (  0.4964441  0.3330085  0.1630979  )
        41           I   tau(  41) = (  0.5036216  0.3341641  0.5039576  )
        42           I   tau(  42) = (  0.4944548  0.3284246  0.8321322  )
        43           I   tau(  43) = (  0.4979489  0.6705058  0.1683959  )
        44           I   tau(  44) = (  0.4976055  0.6690981  0.4985357  )
        45           I   tau(  45) = (  0.4972277  0.6667419  0.8372791  )
        46           I   tau(  46) = (  0.8350611  0.9960856  0.1633195  )
        47           I   tau(  47) = (  0.8275691  0.9971488  0.4991072  )
        48           I   tau(  48) = (  0.8372993  0.0043644  0.8322804  )
        49           I   tau(  49) = (  0.8275108  0.3303242  0.1651525  )
        50           I   tau(  50) = (  0.8305229  0.3303174  0.5026064  )
        51           I   tau(  51) = (  0.8337205  0.3390293  0.8352356  )
        52           I   tau(  52) = (  0.8388907  0.6717715  0.1702738  )
        53           I   tau(  53) = (  0.8391063  0.6694212  0.5011402  )
        54           I   tau(  54) = (  0.8348889  0.6728218  0.8350280  )

     number of k points=   220  Marzari-Vanderbilt smearing, width (Ry)=  0.0200
                       cart. coord. in units 2pi/alat
        k(    1) = (   0.0000000   0.0000000   0.0000000), wk =   0.0133333
        k(    2) = (   0.0000000   0.1414214   0.2000000), wk =   0.0133333
        k(    3) = (   0.0000000   0.2828427   0.4000000), wk =   0.0133333
        k(    4) = (   0.0000000   0.2357023   0.0000000), wk =   0.0266667
        k(    5) = (   0.0000000   0.3771236   0.2000000), wk =   0.0133333
        k(    6) = (   0.0000000   0.5185450   0.4000000), wk =   0.0133333
        k(    7) = (   0.0000000  -0.0471405  -0.4000000), wk =   0.0133333
        k(    8) = (   0.0000000   0.0942809  -0.2000000), wk =   0.0133333
        k(    9) = (   0.0000000   0.4714045   0.0000000), wk =   0.0266667
        k(   10) = (   0.0000000   0.6128259   0.2000000), wk =   0.0133333
        k(   11) = (   0.0000000   0.7542472   0.4000000), wk =   0.0133333
        k(   12) = (   0.0000000   0.1885618  -0.4000000), wk =   0.0133333
        k(   13) = (   0.0000000   0.3299832  -0.2000000), wk =   0.0133333
        k(   14) = (   0.0000000  -0.7071068   0.0000000), wk =   0.0133333
        k(   15) = (   0.0000000  -0.5656854   0.2000000), wk =   0.0133333
        k(   16) = (   0.0000000  -0.4242641   0.4000000), wk =   0.0133333
        k(   17) = (   0.2000000   0.2828427   0.2000000), wk =   0.0066667
        k(   18) = (   0.2000000   0.4242641   0.4000000), wk =   0.0066667
        k(   19) = (   0.2000000  -0.1414214  -0.4000000), wk =   0.0066667
        k(   20) = (   0.2000000   0.0000000  -0.2000000), wk =   0.0133333
        k(   21) = (   0.2000000   0.5185450   0.2000000), wk =   0.0066667
        k(   22) = (   0.2000000   0.6599663   0.4000000), wk =   0.0066667
        k(   23) = (   0.2000000   0.0942809  -0.4000000), wk =   0.0066667
        k(   24) = (   0.2000000   0.2357023  -0.2000000), wk =   0.0133333
        k(   25) = (   0.2000000   0.7542472   0.2000000), wk =   0.0066667
        k(   26) = (   0.2000000   0.8956686   0.4000000), wk =   0.0066667
        k(   27) = (   0.2000000   0.3299832  -0.4000000), wk =   0.0066667
        k(   28) = (   0.2000000   0.4714045  -0.2000000), wk =   0.0133333
        k(   29) = (   0.2000000  -0.4242641   0.2000000), wk =   0.0066667
        k(   30) = (   0.2000000  -0.2828427   0.4000000), wk =   0.0066667
        k(   31) = (   0.2000000  -0.8485281  -0.4000000), wk =   0.0066667
        k(   32) = (   0.2000000  -0.7071068  -0.2000000), wk =   0.0133333
        k(   33) = (   0.2000000  -0.1885618   0.2000000), wk =   0.0066667
        k(   34) = (   0.2000000  -0.0471405   0.4000000), wk =   0.0066667
        k(   35) = (   0.2000000  -0.6128259  -0.4000000), wk =   0.0066667
        k(   36) = (   0.2000000   0.0471405   0.2000000), wk =   0.0066667
        k(   37) = (   0.2000000   0.1885618   0.4000000), wk =   0.0066667
        k(   38) = (   0.2000000  -0.3771236  -0.4000000), wk =   0.0066667
        k(   39) = (   0.4000000   0.5656854   0.4000000), wk =   0.0066667
        k(   40) = (   0.4000000   0.0000000  -0.4000000), wk =   0.0133333
        k(   41) = (   0.4000000   0.8013877   0.4000000), wk =   0.0066667
        k(   42) = (   0.4000000   0.2357023  -0.4000000), wk =   0.0133333
        k(   43) = (   0.4000000   1.0370899   0.4000000), wk =   0.0066667
        k(   44) = (   0.4000000   0.4714045  -0.4000000), wk =   0.0133333
        k(   45) = (   0.4000000  -0.1414214   0.4000000), wk =   0.0066667
        k(   46) = (   0.4000000  -0.7071068  -0.4000000), wk =   0.0133333
        k(   47) = (   0.4000000   0.0942809   0.4000000), wk =   0.0066667
        k(   48) = (   0.4000000   0.3299832   0.4000000), wk =   0.0066667
        k(   49) = (   0.0000000  -0.1414214   0.2000000), wk =   0.0133333
        k(   50) = (   0.2000000  -0.1414214   0.0000000), wk =   0.0133333
        k(   51) = (  -0.2000000  -0.1414214   0.0000000), wk =   0.0133333
        k(   52) = (   0.0000000  -0.2828427   0.4000000), wk =   0.0133333
        k(   53) = (   0.4000000  -0.2828427   0.0000000), wk =   0.0133333
        k(   54) = (  -0.4000000  -0.2828427   0.0000000), wk =   0.0133333
        k(   55) = (   0.0000000  -0.3771236   0.2000000), wk =   0.0133333
        k(   56) = (   0.2000000  -0.3771236   0.0000000), wk =   0.0133333
        k(   57) = (  -0.2000000  -0.3771236   0.0000000), wk =   0.0133333
        k(   58) = (   0.0000000  -0.5185450   0.4000000), wk =   0.0133333
        k(   59) = (   0.4000000  -0.5185450   0.0000000), wk =   0.0133333
        k(   60) = (  -0.4000000  -0.5185450   0.0000000), wk =   0.0133333
        k(   61) = (   0.0000000   0.0471405  -0.4000000), wk =   0.0133333
        k(   62) = (  -0.4000000   0.0471405   0.0000000), wk =   0.0133333
        k(   63) = (   0.4000000   0.0471405   0.0000000), wk =   0.0133333
        k(   64) = (   0.0000000  -0.0942809  -0.2000000), wk =   0.0133333
        k(   65) = (  -0.2000000  -0.0942809   0.0000000), wk =   0.0133333
        k(   66) = (   0.2000000  -0.0942809   0.0000000), wk =   0.0133333
        k(   67) = (   0.0000000  -0.6128259   0.2000000), wk =   0.0133333
        k(   68) = (   0.2000000  -0.6128259   0.0000000), wk =   0.0133333
        k(   69) = (  -0.2000000  -0.6128259   0.0000000), wk =   0.0133333
        k(   70) = (   0.0000000  -0.7542472   0.4000000), wk =   0.0133333
        k(   71) = (   0.4000000  -0.7542472   0.0000000), wk =   0.0133333
        k(   72) = (  -0.4000000  -0.7542472   0.0000000), wk =   0.0133333
        k(   73) = (   0.0000000  -0.1885618  -0.4000000), wk =   0.0133333
        k(   74) = (  -0.4000000  -0.1885618   0.0000000), wk =   0.0133333
        k(   75) = (   0.4000000  -0.1885618   0.0000000), wk =   0.0133333
        k(   76) = (   0.0000000  -0.3299832  -0.2000000), wk =   0.0133333
        k(   77) = (  -0.2000000  -0.3299832   0.0000000), wk =   0.0133333
        k(   78) = (   0.2000000  -0.3299832   0.0000000), wk =   0.0133333
        k(   79) = (   0.0000000   0.5656854   0.2000000), wk =   0.0133333
        k(   80) = (   0.2000000   0.5656854   0.0000000), wk =   0.0133333
        k(   81) = (  -0.2000000   0.5656854   0.0000000), wk =   0.0133333
        k(   82) = (   0.0000000   0.4242641   0.4000000), wk =   0.0133333
        k(   83) = (   0.4000000   0.4242641   0.0000000), wk =   0.0133333
        k(   84) = (  -0.4000000   0.4242641   0.0000000), wk =   0.0133333
        k(   85) = (  -0.2000000  -0.2828427   0.2000000), wk =   0.0066667
        k(   86) = (  -0.2000000   0.2828427  -0.2000000), wk =   0.0066667
        k(   87) = (   0.2000000  -0.2828427  -0.2000000), wk =   0.0066667
        k(   88) = (  -0.2000000  -0.4242641   0.4000000), wk =   0.0066667
        k(   89) = (  -0.2000000   0.4242641  -0.4000000), wk =   0.0066667
        k(   90) = (   0.2000000  -0.4242641  -0.4000000), wk =   0.0066667
        k(   91) = (   0.4000000  -0.4242641   0.2000000), wk =   0.0066667
        k(   92) = (  -0.4000000  -0.4242641  -0.2000000), wk =   0.0066667
        k(   93) = (   0.4000000   0.4242641  -0.2000000), wk =   0.0066667
        k(   94) = (  -0.4000000   0.4242641   0.2000000), wk =   0.0066667
        k(   95) = (  -0.2000000   0.1414214  -0.4000000), wk =   0.0066667
        k(   96) = (  -0.2000000  -0.1414214   0.4000000), wk =   0.0066667
        k(   97) = (   0.2000000   0.1414214   0.4000000), wk =   0.0066667
        k(   98) = (  -0.4000000   0.1414214   0.2000000), wk =   0.0066667
        k(   99) = (   0.4000000   0.1414214  -0.2000000), wk =   0.0066667
        k(  100) = (  -0.4000000  -0.1414214  -0.2000000), wk =   0.0066667
        k(  101) = (   0.4000000  -0.1414214   0.2000000), wk =   0.0066667
        k(  102) = (  -0.2000000  -0.0000000  -0.2000000), wk =   0.0133333
        k(  103) = (  -0.2000000  -0.5185450   0.2000000), wk =   0.0066667
        k(  104) = (  -0.2000000   0.5185450  -0.2000000), wk =   0.0066667
        k(  105) = (   0.2000000  -0.5185450  -0.2000000), wk =   0.0066667
        k(  106) = (  -0.2000000  -0.6599663   0.4000000), wk =   0.0066667
        k(  107) = (  -0.2000000   0.6599663  -0.4000000), wk =   0.0066667
        k(  108) = (   0.2000000  -0.6599663  -0.4000000), wk =   0.0066667
        k(  109) = (   0.4000000  -0.6599663   0.2000000), wk =   0.0066667
        k(  110) = (  -0.4000000  -0.6599663  -0.2000000), wk =   0.0066667
        k(  111) = (   0.4000000   0.6599663  -0.2000000), wk =   0.0066667
        k(  112) = (  -0.4000000   0.6599663   0.2000000), wk =   0.0066667
        k(  113) = (  -0.2000000  -0.0942809  -0.4000000), wk =   0.0066667
        k(  114) = (  -0.2000000   0.0942809   0.4000000), wk =   0.0066667
        k(  115) = (   0.2000000  -0.0942809   0.4000000), wk =   0.0066667
        k(  116) = (  -0.4000000  -0.0942809   0.2000000), wk =   0.0066667
        k(  117) = (   0.4000000  -0.0942809  -0.2000000), wk =   0.0066667
        k(  118) = (  -0.4000000   0.0942809  -0.2000000), wk =   0.0066667
        k(  119) = (   0.4000000   0.0942809   0.2000000), wk =   0.0066667
        k(  120) = (  -0.2000000  -0.2357023  -0.2000000), wk =   0.0133333
        k(  121) = (  -0.2000000   0.2357023   0.2000000), wk =   0.0133333
        k(  122) = (   0.2000000  -0.2357023   0.2000000), wk =   0.0133333
        k(  123) = (  -0.2000000  -0.7542472   0.2000000), wk =   0.0066667
        k(  124) = (  -0.2000000   0.7542472  -0.2000000), wk =   0.0066667
        k(  125) = (   0.2000000  -0.7542472  -0.2000000), wk =   0.0066667
        k(  126) = (  -0.2000000  -0.8956686   0.4000000), wk =   0.0066667
        k(  127) = (  -0.2000000   0.8956686  -0.4000000), wk =   0.0066667
        k(  128) = (   0.2000000  -0.8956686  -0.4000000), wk =   0.0066667
        k(  129) = (   0.4000000  -0.8956686   0.2000000), wk =   0.0066667
        k(  130) = (  -0.4000000  -0.8956686  -0.2000000), wk =   0.0066667
        k(  131) = (   0.4000000   0.8956686  -0.2000000), wk =   0.0066667
        k(  132) = (  -0.4000000   0.8956686   0.2000000), wk =   0.0066667
        k(  133) = (  -0.2000000  -0.3299832  -0.4000000), wk =   0.0066667
        k(  134) = (  -0.2000000   0.3299832   0.4000000), wk =   0.0066667
        k(  135) = (   0.2000000  -0.3299832   0.4000000), wk =   0.0066667
        k(  136) = (  -0.4000000  -0.3299832   0.2000000), wk =   0.0066667
        k(  137) = (   0.4000000  -0.3299832  -0.2000000), wk =   0.0066667
        k(  138) = (  -0.4000000   0.3299832  -0.2000000), wk =   0.0066667
        k(  139) = (   0.4000000   0.3299832   0.2000000), wk =   0.0066667
        k(  140) = (  -0.2000000  -0.4714045  -0.2000000), wk =   0.0133333
        k(  141) = (  -0.2000000   0.4714045   0.2000000), wk =   0.0133333
        k(  142) = (   0.2000000  -0.4714045   0.2000000), wk =   0.0133333
        k(  143) = (  -0.2000000   0.4242641   0.2000000), wk =   0.0066667
        k(  144) = (  -0.2000000  -0.4242641  -0.2000000), wk =   0.0066667
        k(  145) = (   0.2000000   0.4242641  -0.2000000), wk =   0.0066667
        k(  146) = (  -0.2000000   0.2828427   0.4000000), wk =   0.0066667
        k(  147) = (  -0.2000000  -0.2828427  -0.4000000), wk =   0.0066667
        k(  148) = (   0.2000000   0.2828427  -0.4000000), wk =   0.0066667
        k(  149) = (   0.4000000   0.2828427   0.2000000), wk =   0.0066667
        k(  150) = (  -0.4000000   0.2828427  -0.2000000), wk =   0.0066667
        k(  151) = (   0.4000000  -0.2828427  -0.2000000), wk =   0.0066667
        k(  152) = (  -0.4000000  -0.2828427   0.2000000), wk =   0.0066667
        k(  153) = (  -0.2000000   0.8485281  -0.4000000), wk =   0.0066667
        k(  154) = (  -0.2000000  -0.8485281   0.4000000), wk =   0.0066667
        k(  155) = (   0.2000000   0.8485281   0.4000000), wk =   0.0066667
        k(  156) = (  -0.4000000   0.8485281   0.2000000), wk =   0.0066667
        k(  157) = (   0.4000000   0.8485281  -0.2000000), wk =   0.0066667
        k(  158) = (  -0.4000000  -0.8485281  -0.2000000), wk =   0.0066667
        k(  159) = (   0.4000000  -0.8485281   0.2000000), wk =   0.0066667
        k(  160) = (  -0.2000000   0.7071068  -0.2000000), wk =   0.0133333
        k(  161) = (  -0.2000000   0.1885618   0.2000000), wk =   0.0066667
        k(  162) = (  -0.2000000  -0.1885618  -0.2000000), wk =   0.0066667
        k(  163) = (   0.2000000   0.1885618  -0.2000000), wk =   0.0066667
        k(  164) = (  -0.2000000   0.0471405   0.4000000), wk =   0.0066667
        k(  165) = (  -0.2000000  -0.0471405  -0.4000000), wk =   0.0066667
        k(  166) = (   0.2000000   0.0471405  -0.4000000), wk =   0.0066667
        k(  167) = (   0.4000000   0.0471405   0.2000000), wk =   0.0066667
        k(  168) = (  -0.4000000   0.0471405  -0.2000000), wk =   0.0066667
        k(  169) = (   0.4000000  -0.0471405  -0.2000000), wk =   0.0066667
        k(  170) = (  -0.4000000  -0.0471405   0.2000000), wk =   0.0066667
        k(  171) = (  -0.2000000   0.6128259  -0.4000000), wk =   0.0066667
        k(  172) = (  -0.2000000  -0.6128259   0.4000000), wk =   0.0066667
        k(  173) = (   0.2000000   0.6128259   0.4000000), wk =   0.0066667
        k(  174) = (  -0.4000000   0.6128259   0.2000000), wk =   0.0066667
        k(  175) = (   0.4000000   0.6128259  -0.2000000), wk =   0.0066667
        k(  176) = (  -0.4000000  -0.6128259  -0.2000000), wk =   0.0066667
        k(  177) = (   0.4000000  -0.6128259   0.2000000), wk =   0.0066667
        k(  178) = (  -0.2000000  -0.0471405   0.2000000), wk =   0.0066667
        k(  179) = (  -0.2000000   0.0471405  -0.2000000), wk =   0.0066667
        k(  180) = (   0.2000000  -0.0471405  -0.2000000), wk =   0.0066667
        k(  181) = (  -0.2000000  -0.1885618   0.4000000), wk =   0.0066667
        k(  182) = (  -0.2000000   0.1885618  -0.4000000), wk =   0.0066667
        k(  183) = (   0.2000000  -0.1885618  -0.4000000), wk =   0.0066667
        k(  184) = (   0.4000000  -0.1885618   0.2000000), wk =   0.0066667
        k(  185) = (  -0.4000000  -0.1885618  -0.2000000), wk =   0.0066667
        k(  186) = (   0.4000000   0.1885618  -0.2000000), wk =   0.0066667
        k(  187) = (  -0.4000000   0.1885618   0.2000000), wk =   0.0066667
        k(  188) = (  -0.2000000   0.3771236  -0.4000000), wk =   0.0066667
        k(  189) = (  -0.2000000  -0.3771236   0.4000000), wk =   0.0066667
        k(  190) = (   0.2000000   0.3771236   0.4000000), wk =   0.0066667
        k(  191) = (  -0.4000000   0.3771236   0.2000000), wk =   0.0066667
        k(  192) = (   0.4000000   0.3771236  -0.2000000), wk =   0.0066667
        k(  193) = (  -0.4000000  -0.3771236  -0.2000000), wk =   0.0066667
        k(  194) = (   0.4000000  -0.3771236   0.2000000), wk =   0.0066667
        k(  195) = (  -0.4000000  -0.5656854   0.4000000), wk =   0.0066667
        k(  196) = (  -0.4000000   0.5656854  -0.4000000), wk =   0.0066667
        k(  197) = (   0.4000000  -0.5656854  -0.4000000), wk =   0.0066667
        k(  198) = (  -0.4000000  -0.0000000  -0.4000000), wk =   0.0133333
        k(  199) = (  -0.4000000  -0.8013877   0.4000000), wk =   0.0066667
        k(  200) = (  -0.4000000   0.8013877  -0.4000000), wk =   0.0066667
        k(  201) = (   0.4000000  -0.8013877  -0.4000000), wk =   0.0066667
        k(  202) = (  -0.4000000  -0.2357023  -0.4000000), wk =   0.0133333
        k(  203) = (  -0.4000000   0.2357023   0.4000000), wk =   0.0133333
        k(  204) = (   0.4000000  -0.2357023   0.4000000), wk =   0.0133333
        k(  205) = (  -0.4000000  -1.0370899   0.4000000), wk =   0.0066667
        k(  206) = (  -0.4000000   1.0370899  -0.4000000), wk =   0.0066667
        k(  207) = (   0.4000000  -1.0370899  -0.4000000), wk =   0.0066667
        k(  208) = (  -0.4000000  -0.4714045  -0.4000000), wk =   0.0133333
        k(  209) = (  -0.4000000   0.4714045   0.4000000), wk =   0.0133333
        k(  210) = (   0.4000000  -0.4714045   0.4000000), wk =   0.0133333
        k(  211) = (  -0.4000000   0.1414214   0.4000000), wk =   0.0066667
        k(  212) = (  -0.4000000  -0.1414214  -0.4000000), wk =   0.0066667
        k(  213) = (   0.4000000   0.1414214  -0.4000000), wk =   0.0066667
        k(  214) = (  -0.4000000   0.7071068  -0.4000000), wk =   0.0133333
        k(  215) = (  -0.4000000  -0.0942809   0.4000000), wk =   0.0066667
        k(  216) = (  -0.4000000   0.0942809  -0.4000000), wk =   0.0066667
        k(  217) = (   0.4000000  -0.0942809  -0.4000000), wk =   0.0066667
        k(  218) = (  -0.4000000  -0.3299832   0.4000000), wk =   0.0066667
        k(  219) = (  -0.4000000   0.3299832  -0.4000000), wk =   0.0066667
        k(  220) = (   0.4000000  -0.3299832  -0.4000000), wk =   0.0066667

                       cryst. coord.
        k(    1) = (   0.0000000   0.0000000   0.0000000), wk =   0.0133333
        k(    2) = (   0.0000000   0.0000000   0.2000000), wk =   0.0133333
        k(    3) = (   0.0000000   0.0000000   0.4000000), wk =   0.0133333
        k(    4) = (   0.0000000   0.1666667   0.0000000), wk =   0.0266667
        k(    5) = (   0.0000000   0.1666667   0.2000000), wk =   0.0133333
        k(    6) = (   0.0000000   0.1666667   0.4000000), wk =   0.0133333
        k(    7) = (   0.0000000   0.1666667  -0.4000000), wk =   0.0133333
        k(    8) = (   0.0000000   0.1666667  -0.2000000), wk =   0.0133333
        k(    9) = (   0.0000000   0.3333333   0.0000000), wk =   0.0266667
        k(   10) = (   0.0000000   0.3333333   0.2000000), wk =   0.0133333
        k(   11) = (   0.0000000   0.3333333   0.4000000), wk =   0.0133333
        k(   12) = (   0.0000000   0.3333333  -0.4000000), wk =   0.0133333
        k(   13) = (   0.0000000   0.3333333  -0.2000000), wk =   0.0133333
        k(   14) = (   0.0000000  -0.5000000   0.0000000), wk =   0.0133333
        k(   15) = (   0.0000000  -0.5000000   0.2000000), wk =   0.0133333
        k(   16) = (   0.0000000  -0.5000000   0.4000000), wk =   0.0133333
        k(   17) = (   0.2000000   0.0000000   0.2000000), wk =   0.0066667
        k(   18) = (   0.2000000  -0.0000000   0.4000000), wk =   0.0066667
        k(   19) = (   0.2000000   0.0000000  -0.4000000), wk =   0.0066667
        k(   20) = (   0.2000000   0.0000000  -0.2000000), wk =   0.0133333
        k(   21) = (   0.2000000   0.1666667   0.2000000), wk =   0.0066667
        k(   22) = (   0.2000000   0.1666667   0.4000000), wk =   0.0066667
        k(   23) = (   0.2000000   0.1666667  -0.4000000), wk =   0.0066667
        k(   24) = (   0.2000000   0.1666667  -0.2000000), wk =   0.0133333
        k(   25) = (   0.2000000   0.3333333   0.2000000), wk =   0.0066667
        k(   26) = (   0.2000000   0.3333333   0.4000000), wk =   0.0066667
        k(   27) = (   0.2000000   0.3333333  -0.4000000), wk =   0.0066667
        k(   28) = (   0.2000000   0.3333333  -0.2000000), wk =   0.0133333
        k(   29) = (   0.2000000  -0.5000000   0.2000000), wk =   0.0066667
        k(   30) = (   0.2000000  -0.5000000   0.4000000), wk =   0.0066667
        k(   31) = (   0.2000000  -0.5000000  -0.4000000), wk =   0.0066667
        k(   32) = (   0.2000000  -0.5000000  -0.2000000), wk =   0.0133333
        k(   33) = (   0.2000000  -0.3333333   0.2000000), wk =   0.0066667
        k(   34) = (   0.2000000  -0.3333333   0.4000000), wk =   0.0066667
        k(   35) = (   0.2000000  -0.3333333  -0.4000000), wk =   0.0066667
        k(   36) = (   0.2000000  -0.1666667   0.2000000), wk =   0.0066667
        k(   37) = (   0.2000000  -0.1666667   0.4000000), wk =   0.0066667
        k(   38) = (   0.2000000  -0.1666667  -0.4000000), wk =   0.0066667
        k(   39) = (   0.4000000   0.0000000   0.4000000), wk =   0.0066667
        k(   40) = (   0.4000000   0.0000000  -0.4000000), wk =   0.0133333
        k(   41) = (   0.4000000   0.1666667   0.4000000), wk =   0.0066667
        k(   42) = (   0.4000000   0.1666667  -0.4000000), wk =   0.0133333
        k(   43) = (   0.4000000   0.3333333   0.4000000), wk =   0.0066667
        k(   44) = (   0.4000000   0.3333333  -0.4000000), wk =   0.0133333
        k(   45) = (   0.4000000  -0.5000000   0.4000000), wk =   0.0066667
        k(   46) = (   0.4000000  -0.5000000  -0.4000000), wk =   0.0133333
        k(   47) = (   0.4000000  -0.3333333   0.4000000), wk =   0.0066667
        k(   48) = (   0.4000000  -0.1666667   0.4000000), wk =   0.0066667
        k(   49) = (   0.0000000  -0.2000000   0.2000000), wk =   0.0133333
        k(   50) = (   0.2000000  -0.2000000   0.0000000), wk =   0.0133333
        k(   51) = (  -0.2000000   0.0000000   0.0000000), wk =   0.0133333
        k(   52) = (   0.0000000  -0.4000000   0.4000000), wk =   0.0133333
        k(   53) = (   0.4000000  -0.4000000   0.0000000), wk =   0.0133333
        k(   54) = (  -0.4000000   0.0000000   0.0000000), wk =   0.0133333
        k(   55) = (   0.0000000  -0.3666667   0.2000000), wk =   0.0133333
        k(   56) = (   0.2000000  -0.3666667   0.0000000), wk =   0.0133333
        k(   57) = (  -0.2000000  -0.1666667   0.0000000), wk =   0.0133333
        k(   58) = (   0.0000000  -0.5666667   0.4000000), wk =   0.0133333
        k(   59) = (   0.4000000  -0.5666667   0.0000000), wk =   0.0133333
        k(   60) = (  -0.4000000  -0.1666667   0.0000000), wk =   0.0133333
        k(   61) = (   0.0000000   0.2333333  -0.4000000), wk =   0.0133333
        k(   62) = (  -0.4000000   0.2333333   0.0000000), wk =   0.0133333
        k(   63) = (   0.4000000  -0.1666667   0.0000000), wk =   0.0133333
        k(   64) = (   0.0000000   0.0333333  -0.2000000), wk =   0.0133333
        k(   65) = (  -0.2000000   0.0333333   0.0000000), wk =   0.0133333
        k(   66) = (   0.2000000  -0.1666667   0.0000000), wk =   0.0133333
        k(   67) = (   0.0000000  -0.5333333   0.2000000), wk =   0.0133333
        k(   68) = (   0.2000000  -0.5333333   0.0000000), wk =   0.0133333
        k(   69) = (  -0.2000000  -0.3333333   0.0000000), wk =   0.0133333
        k(   70) = (   0.0000000  -0.7333333   0.4000000), wk =   0.0133333
        k(   71) = (   0.4000000  -0.7333333   0.0000000), wk =   0.0133333
        k(   72) = (  -0.4000000  -0.3333333   0.0000000), wk =   0.0133333
        k(   73) = (   0.0000000   0.0666667  -0.4000000), wk =   0.0133333
        k(   74) = (  -0.4000000   0.0666667   0.0000000), wk =   0.0133333
        k(   75) = (   0.4000000  -0.3333333   0.0000000), wk =   0.0133333
        k(   76) = (   0.0000000  -0.1333333  -0.2000000), wk =   0.0133333
        k(   77) = (  -0.2000000  -0.1333333   0.0000000), wk =   0.0133333
        k(   78) = (   0.2000000  -0.3333333   0.0000000), wk =   0.0133333
        k(   79) = (   0.0000000   0.3000000   0.2000000), wk =   0.0133333
        k(   80) = (   0.2000000   0.3000000   0.0000000), wk =   0.0133333
        k(   81) = (  -0.2000000   0.5000000   0.0000000), wk =   0.0133333
        k(   82) = (   0.0000000   0.1000000   0.4000000), wk =   0.0133333
        k(   83) = (   0.4000000   0.1000000   0.0000000), wk =   0.0133333
        k(   84) = (  -0.4000000   0.5000000   0.0000000), wk =   0.0133333
        k(   85) = (  -0.2000000  -0.2000000   0.2000000), wk =   0.0066667
        k(   86) = (  -0.2000000   0.4000000  -0.2000000), wk =   0.0066667
        k(   87) = (   0.2000000  -0.2000000  -0.2000000), wk =   0.0066667
        k(   88) = (  -0.2000000  -0.4000000   0.4000000), wk =   0.0066667
        k(   89) = (  -0.2000000   0.6000000  -0.4000000), wk =   0.0066667
        k(   90) = (   0.2000000  -0.2000000  -0.4000000), wk =   0.0066667
        k(   91) = (   0.4000000  -0.6000000   0.2000000), wk =   0.0066667
        k(   92) = (  -0.4000000   0.0000000  -0.2000000), wk =   0.0066667
        k(   93) = (   0.4000000   0.2000000  -0.2000000), wk =   0.0066667
        k(   94) = (  -0.4000000   0.4000000   0.2000000), wk =   0.0066667
        k(   95) = (  -0.2000000   0.4000000  -0.4000000), wk =   0.0066667
        k(   96) = (  -0.2000000  -0.2000000   0.4000000), wk =   0.0066667
        k(   97) = (   0.2000000  -0.2000000   0.4000000), wk =   0.0066667
        k(   98) = (  -0.4000000   0.2000000   0.2000000), wk =   0.0066667
        k(   99) = (   0.4000000  -0.0000000  -0.2000000), wk =   0.0066667
        k(  100) = (  -0.4000000   0.2000000  -0.2000000), wk =   0.0066667
        k(  101) = (   0.4000000  -0.4000000   0.2000000), wk =   0.0066667
        k(  102) = (  -0.2000000   0.2000000  -0.2000000), wk =   0.0133333
        k(  103) = (  -0.2000000  -0.3666667   0.2000000), wk =   0.0066667
        k(  104) = (  -0.2000000   0.5666667  -0.2000000), wk =   0.0066667
        k(  105) = (   0.2000000  -0.3666667  -0.2000000), wk =   0.0066667
        k(  106) = (  -0.2000000  -0.5666667   0.4000000), wk =   0.0066667
        k(  107) = (  -0.2000000   0.7666667  -0.4000000), wk =   0.0066667
        k(  108) = (   0.2000000  -0.3666667  -0.4000000), wk =   0.0066667
        k(  109) = (   0.4000000  -0.7666667   0.2000000), wk =   0.0066667
        k(  110) = (  -0.4000000  -0.1666667  -0.2000000), wk =   0.0066667
        k(  111) = (   0.4000000   0.3666667  -0.2000000), wk =   0.0066667
        k(  112) = (  -0.4000000   0.5666667   0.2000000), wk =   0.0066667
        k(  113) = (  -0.2000000   0.2333333  -0.4000000), wk =   0.0066667
        k(  114) = (  -0.2000000  -0.0333333   0.4000000), wk =   0.0066667
        k(  115) = (   0.2000000  -0.3666667   0.4000000), wk =   0.0066667
        k(  116) = (  -0.4000000   0.0333333   0.2000000), wk =   0.0066667
        k(  117) = (   0.4000000  -0.1666667  -0.2000000), wk =   0.0066667
        k(  118) = (  -0.4000000   0.3666667  -0.2000000), wk =   0.0066667
        k(  119) = (   0.4000000  -0.2333333   0.2000000), wk =   0.0066667
        k(  120) = (  -0.2000000   0.0333333  -0.2000000), wk =   0.0133333
        k(  121) = (  -0.2000000   0.1666667   0.2000000), wk =   0.0133333
        k(  122) = (   0.2000000  -0.3666667   0.2000000), wk =   0.0133333
        k(  123) = (  -0.2000000  -0.5333333   0.2000000), wk =   0.0066667
        k(  124) = (  -0.2000000   0.7333333  -0.2000000), wk =   0.0066667
        k(  125) = (   0.2000000  -0.5333333  -0.2000000), wk =   0.0066667
        k(  126) = (  -0.2000000  -0.7333333   0.4000000), wk =   0.0066667
        k(  127) = (  -0.2000000   0.9333333  -0.4000000), wk =   0.0066667
        k(  128) = (   0.2000000  -0.5333333  -0.4000000), wk =   0.0066667
        k(  129) = (   0.4000000  -0.9333333   0.2000000), wk =   0.0066667
        k(  130) = (  -0.4000000  -0.3333333  -0.2000000), wk =   0.0066667
        k(  131) = (   0.4000000   0.5333333  -0.2000000), wk =   0.0066667
        k(  132) = (  -0.4000000   0.7333333   0.2000000), wk =   0.0066667
        k(  133) = (  -0.2000000   0.0666667  -0.4000000), wk =   0.0066667
        k(  134) = (  -0.2000000   0.1333333   0.4000000), wk =   0.0066667
        k(  135) = (   0.2000000  -0.5333333   0.4000000), wk =   0.0066667
        k(  136) = (  -0.4000000  -0.1333333   0.2000000), wk =   0.0066667
        k(  137) = (   0.4000000  -0.3333333  -0.2000000), wk =   0.0066667
        k(  138) = (  -0.4000000   0.5333333  -0.2000000), wk =   0.0066667
        k(  139) = (   0.4000000  -0.0666667   0.2000000), wk =   0.0066667
        k(  140) = (  -0.2000000  -0.1333333  -0.2000000), wk =   0.0133333
        k(  141) = (  -0.2000000   0.3333333   0.2000000), wk =   0.0133333
        k(  142) = (   0.2000000  -0.5333333   0.2000000), wk =   0.0133333
        k(  143) = (  -0.2000000   0.3000000   0.2000000), wk =   0.0066667
        k(  144) = (  -0.2000000  -0.1000000  -0.2000000), wk =   0.0066667
        k(  145) = (   0.2000000   0.3000000  -0.2000000), wk =   0.0066667
        k(  146) = (  -0.2000000   0.1000000   0.4000000), wk =   0.0066667
        k(  147) = (  -0.2000000   0.1000000  -0.4000000), wk =   0.0066667
        k(  148) = (   0.2000000   0.3000000  -0.4000000), wk =   0.0066667
        k(  149) = (   0.4000000  -0.1000000   0.2000000), wk =   0.0066667
        k(  150) = (  -0.4000000   0.5000000  -0.2000000), wk =   0.0066667
        k(  151) = (   0.4000000  -0.3000000  -0.2000000), wk =   0.0066667
        k(  152) = (  -0.4000000  -0.1000000   0.2000000), wk =   0.0066667
        k(  153) = (  -0.2000000   0.9000000  -0.4000000), wk =   0.0066667
        k(  154) = (  -0.2000000  -0.7000000   0.4000000), wk =   0.0066667
        k(  155) = (   0.2000000   0.3000000   0.4000000), wk =   0.0066667
        k(  156) = (  -0.4000000   0.7000000   0.2000000), wk =   0.0066667
        k(  157) = (   0.4000000   0.5000000  -0.2000000), wk =   0.0066667
        k(  158) = (  -0.4000000  -0.3000000  -0.2000000), wk =   0.0066667
        k(  159) = (   0.4000000  -0.9000000   0.2000000), wk =   0.0066667
        k(  160) = (  -0.2000000   0.7000000  -0.2000000), wk =   0.0133333
        k(  161) = (  -0.2000000   0.1333333   0.2000000), wk =   0.0066667
        k(  162) = (  -0.2000000   0.0666667  -0.2000000), wk =   0.0066667
        k(  163) = (   0.2000000   0.1333333  -0.2000000), wk =   0.0066667
        k(  164) = (  -0.2000000  -0.0666667   0.4000000), wk =   0.0066667
        k(  165) = (  -0.2000000   0.2666667  -0.4000000), wk =   0.0066667
        k(  166) = (   0.2000000   0.1333333  -0.4000000), wk =   0.0066667
        k(  167) = (   0.4000000  -0.2666667   0.2000000), wk =   0.0066667
        k(  168) = (  -0.4000000   0.3333333  -0.2000000), wk =   0.0066667
        k(  169) = (   0.4000000  -0.1333333  -0.2000000), wk =   0.0066667
        k(  170) = (  -0.4000000   0.0666667   0.2000000), wk =   0.0066667
        k(  171) = (  -0.2000000   0.7333333  -0.4000000), wk =   0.0066667
        k(  172) = (  -0.2000000  -0.5333333   0.4000000), wk =   0.0066667
        k(  173) = (   0.2000000   0.1333333   0.4000000), wk =   0.0066667
        k(  174) = (  -0.4000000   0.5333333   0.2000000), wk =   0.0066667
        k(  175) = (   0.4000000   0.3333333  -0.2000000), wk =   0.0066667
        k(  176) = (  -0.4000000  -0.1333333  -0.2000000), wk =   0.0066667
        k(  177) = (   0.4000000  -0.7333333   0.2000000), wk =   0.0066667
        k(  178) = (  -0.2000000  -0.0333333   0.2000000), wk =   0.0066667
        k(  179) = (  -0.2000000   0.2333333  -0.2000000), wk =   0.0066667
        k(  180) = (   0.2000000  -0.0333333  -0.2000000), wk =   0.0066667
        k(  181) = (  -0.2000000  -0.2333333   0.4000000), wk =   0.0066667
        k(  182) = (  -0.2000000   0.4333333  -0.4000000), wk =   0.0066667
        k(  183) = (   0.2000000  -0.0333333  -0.4000000), wk =   0.0066667
        k(  184) = (   0.4000000  -0.4333333   0.2000000), wk =   0.0066667
        k(  185) = (  -0.4000000   0.1666667  -0.2000000), wk =   0.0066667
        k(  186) = (   0.4000000   0.0333333  -0.2000000), wk =   0.0066667
        k(  187) = (  -0.4000000   0.2333333   0.2000000), wk =   0.0066667
        k(  188) = (  -0.2000000   0.5666667  -0.4000000), wk =   0.0066667
        k(  189) = (  -0.2000000  -0.3666667   0.4000000), wk =   0.0066667
        k(  190) = (   0.2000000  -0.0333333   0.4000000), wk =   0.0066667
        k(  191) = (  -0.4000000   0.3666667   0.2000000), wk =   0.0066667
        k(  192) = (   0.4000000   0.1666667  -0.2000000), wk =   0.0066667
        k(  193) = (  -0.4000000   0.0333333  -0.2000000), wk =   0.0066667
        k(  194) = (   0.4000000  -0.5666667   0.2000000), wk =   0.0066667
        k(  195) = (  -0.4000000  -0.4000000   0.4000000), wk =   0.0066667
        k(  196) = (  -0.4000000   0.8000000  -0.4000000), wk =   0.0066667
        k(  197) = (   0.4000000  -0.4000000  -0.4000000), wk =   0.0066667
        k(  198) = (  -0.4000000   0.4000000  -0.4000000), wk =   0.0133333
        k(  199) = (  -0.4000000  -0.5666667   0.4000000), wk =   0.0066667
        k(  200) = (  -0.4000000   0.9666667  -0.4000000), wk =   0.0066667
        k(  201) = (   0.4000000  -0.5666667  -0.4000000), wk =   0.0066667
        k(  202) = (  -0.4000000   0.2333333  -0.4000000), wk =   0.0133333
        k(  203) = (  -0.4000000   0.1666667   0.4000000), wk =   0.0133333
        k(  204) = (   0.4000000  -0.5666667   0.4000000), wk =   0.0133333
        k(  205) = (  -0.4000000  -0.7333333   0.4000000), wk =   0.0066667
        k(  206) = (  -0.4000000   1.1333333  -0.4000000), wk =   0.0066667
        k(  207) = (   0.4000000  -0.7333333  -0.4000000), wk =   0.0066667
        k(  208) = (  -0.4000000   0.0666667  -0.4000000), wk =   0.0133333
        k(  209) = (  -0.4000000   0.3333333   0.4000000), wk =   0.0133333
        k(  210) = (   0.4000000  -0.7333333   0.4000000), wk =   0.0133333
        k(  211) = (  -0.4000000   0.1000000   0.4000000), wk =   0.0066667
        k(  212) = (  -0.4000000   0.3000000  -0.4000000), wk =   0.0066667
        k(  213) = (   0.4000000   0.1000000  -0.4000000), wk =   0.0066667
        k(  214) = (  -0.4000000   0.9000000  -0.4000000), wk =   0.0133333
        k(  215) = (  -0.4000000  -0.0666667   0.4000000), wk =   0.0066667
        k(  216) = (  -0.4000000   0.4666667  -0.4000000), wk =   0.0066667
        k(  217) = (   0.4000000  -0.0666667  -0.4000000), wk =   0.0066667
        k(  218) = (  -0.4000000  -0.2333333   0.4000000), wk =   0.0066667
        k(  219) = (  -0.4000000   0.6333333  -0.4000000), wk =   0.0066667
        k(  220) = (   0.4000000  -0.2333333  -0.4000000), wk =   0.0066667

     Dense  grid:  2526263 G-vectors     FFT dimensions: ( 192, 192, 192)

     Smooth grid:   892711 G-vectors     FFT dimensions: ( 135, 135, 135)

     Estimated max dynamical RAM per process >    1151.09MB

     Estimated total allocated dynamical RAM >  589357.45MB

     Initial potential from superposition of free atoms

     starting charge  430.93370, renormalised to  432.00000
     Starting wfc are  459 randomized atomic wfcs

     total cpu time spent up to now is      128.2 secs

     per-process dynamical memory:   681.3 Mb

     Self-consistent Calculation

     iteration #  1     ecut=    45.00 Ry     beta=0.35
     Davidson diagonalization with overlap
     ethr =  1.00E-02,  avg # of iterations =  3.0

===================================================================================
=   BAD TERMINATION OF ONE OF YOUR APPLICATION PROCESSES
=   PID 24948 RUNNING AT r101c17s02-hfi.marconi.cineca.it
=   EXIT CODE: 7
=   CLEANING UP REMAINING PROCESSES
=   YOU CAN IGNORE THE BELOW CLEANUP MESSAGES
===================================================================================
   Intel(R) MPI Library troubleshooting guide:
      https://software.intel.com/node/561764
===================================================================================
