
     Program PWSCF v.6.1 starts on 25Sep2017 at 11: 7: 0 

     This program is part of the open-source Quantum ESPRESSO suite
     for quantum simulation of materials; please cite
         "P. Giannozzi et al., J. Phys.:Condens. Matter 21 395502 (2009);
          URL http://www.quantum-espresso.org", 
     in publications or presentations arising from this work. More details at
     http://www.quantum-espresso.org/quote

     Parallel version (MPI & OpenMP), running on     360 processor cores
     Number of MPI processes:                90
     Threads/MPI process:                     4
     K-points division:     npool     =      10
     R & G space division:  proc/nbgrp/npool/nimage =       9
     Reading input from pw.in
     Message from routine read_cards :
     DEPRECATED: no units specified in CELL_PARAMETERS card
SIRIUS 4.8, git hash: 254b482b5c8fe0c26b0b4a747548b4baa50a6567

     Current dimensions of program PWSCF are:
     Max number of different atomic species (ntypx) = 10
     Max number of k-points (npk) =  40000
     Max angular momentum in pseudopotentials (lmaxx) =  3

     Subspace diagonalization in iterative solution of the eigenvalue problem:
     one sub-group per band group will be used
     custom distributed-memory algorithm (size of sub-group:  3*  3 procs)


   Info: using nr1, nr2, nr3 values from input

     Parallelization info
     --------------------
     sticks:   dense  smooth     PW     G-vecs:    dense   smooth      PW
     Min        1116     597    161                84294    32877    4649
     Max        1117     598    162                84297    32880    4652
     Sum       10049    5377   1457               758657   295907   41851



     bravais-lattice index     =            0
     lattice parameter (alat)  =       1.0000  a.u.
     unit-cell volume          =    8646.7719 (a.u.)^3
     number of atoms/cell      =           64
     number of atomic types    =            2
     number of electrons       =       266.00
     number of Kohn-Sham states=          160
     kinetic-energy cutoff     =      40.0000  Ry
     charge density cutoff     =     300.0000  Ry
     convergence threshold     =      1.0E-10
     mixing beta               =       0.7000
     number of iterations used =            8  plain     mixing
     Exchange-correlation      = SLA  PZ   NOGX NOGC ( 1  1  0  0 0 0)
     nstep                     =          100


     celldm(1)=   1.000000  celldm(2)=   0.000000  celldm(3)=   0.000000
     celldm(4)=   0.000000  celldm(5)=   0.000000  celldm(6)=   0.000000

     crystal axes: (cart. coord. in units of alat)
               a(1) = (  20.525071   0.000000   0.000000 )  
               a(2) = (   0.000000  20.525071   0.000000 )  
               a(3) = (   0.000000   0.000000  20.525071 )  

     reciprocal axes: (cart. coord. in units 2 pi/alat)
               b(1) = (  0.048721  0.000000  0.000000 )  
               b(2) = (  0.000000  0.048721  0.000000 )  
               b(3) = (  0.000000  0.000000  0.048721 )  


     PseudoPot. # 1 for Ge read from file:
     ./ge_lda_v1.uspp.F.UPF
     MD5 check sum: 575f587c0f86b3eee266efe92ef02c15
     Pseudo is Ultrasoft + core correction, Zval = 14.0
     Generated by new atomic code, or converted to UPF format
     Using radial grid of  873 points,  6 beta functions with: 
                l(1) =   0
                l(2) =   0
                l(3) =   1
                l(4) =   1
                l(5) =   2
                l(6) =   2
     Q(r) pseudized with  8 coefficients,  rinner =    1.400   1.400   1.400
                                                       1.400   1.400

     PseudoPot. # 2 for Si read from file:
     ./si_lda_v1.uspp.F.UPF
     MD5 check sum: ca10e49b2835512e91ee5100d37237e0
     Pseudo is Ultrasoft + core correction, Zval =  4.0
     Generated by new atomic code, or converted to UPF format
     Using radial grid of  899 points,  6 beta functions with: 
                l(1) =   0
                l(2) =   0
                l(3) =   1
                l(4) =   1
                l(5) =   2
                l(6) =   2
     Q(r) pseudized with  8 coefficients,  rinner =    0.900   0.900   0.900
                                                       0.900   0.900

     atomic species   valence    mass     pseudopotential
        Ge            14.00    72.61000     Ge( 1.00)
        Si             4.00    28.08550     Si( 1.00)

     24 Sym. Ops. (no inversion) found


                                    s                        frac. trans.

      isym =  1     identity                                     

 cryst.   s( 1) = (     1          0          0      )
                  (     0          1          0      )
                  (     0          0          1      )

 cart.    s( 1) = (  1.0000000  0.0000000  0.0000000 )
                  (  0.0000000  1.0000000  0.0000000 )
                  (  0.0000000  0.0000000  1.0000000 )


      isym =  2     180 deg rotation - cart. axis [0,0,1]        

 cryst.   s( 2) = (    -1          0          0      )
                  (     0         -1          0      )
                  (     0          0          1      )

 cart.    s( 2) = ( -1.0000000  0.0000000  0.0000000 )
                  (  0.0000000 -1.0000000  0.0000000 )
                  (  0.0000000  0.0000000  1.0000000 )


      isym =  3     180 deg rotation - cart. axis [0,1,0]        

 cryst.   s( 3) = (    -1          0          0      )
                  (     0          1          0      )
                  (     0          0         -1      )

 cart.    s( 3) = ( -1.0000000  0.0000000  0.0000000 )
                  (  0.0000000  1.0000000  0.0000000 )
                  (  0.0000000  0.0000000 -1.0000000 )


      isym =  4     180 deg rotation - cart. axis [1,0,0]        

 cryst.   s( 4) = (     1          0          0      )
                  (     0         -1          0      )
                  (     0          0         -1      )

 cart.    s( 4) = (  1.0000000  0.0000000  0.0000000 )
                  (  0.0000000 -1.0000000  0.0000000 )
                  (  0.0000000  0.0000000 -1.0000000 )


      isym =  5     120 deg rotation - cart. axis [-1,-1,-1]     

 cryst.   s( 5) = (     0          0          1      )
                  (     1          0          0      )
                  (     0          1          0      )

 cart.    s( 5) = (  0.0000000  1.0000000  0.0000000 )
                  (  0.0000000  0.0000000  1.0000000 )
                  (  1.0000000  0.0000000  0.0000000 )


      isym =  6     120 deg rotation - cart. axis [-1,1,1]       

 cryst.   s( 6) = (     0          0         -1      )
                  (    -1          0          0      )
                  (     0          1          0      )

 cart.    s( 6) = (  0.0000000 -1.0000000  0.0000000 )
                  (  0.0000000  0.0000000  1.0000000 )
                  ( -1.0000000  0.0000000  0.0000000 )


      isym =  7     120 deg rotation - cart. axis [1,1,-1]       

 cryst.   s( 7) = (     0          0         -1      )
                  (     1          0          0      )
                  (     0         -1          0      )

 cart.    s( 7) = (  0.0000000  1.0000000  0.0000000 )
                  (  0.0000000  0.0000000 -1.0000000 )
                  ( -1.0000000  0.0000000  0.0000000 )


      isym =  8     120 deg rotation - cart. axis [1,-1,1]       

 cryst.   s( 8) = (     0          0          1      )
                  (    -1          0          0      )
                  (     0         -1          0      )

 cart.    s( 8) = (  0.0000000 -1.0000000  0.0000000 )
                  (  0.0000000  0.0000000 -1.0000000 )
                  (  1.0000000  0.0000000  0.0000000 )


      isym =  9     120 deg rotation - cart. axis [1,1,1]        

 cryst.   s( 9) = (     0          1          0      )
                  (     0          0          1      )
                  (     1          0          0      )

 cart.    s( 9) = (  0.0000000  0.0000000  1.0000000 )
                  (  1.0000000  0.0000000  0.0000000 )
                  (  0.0000000  1.0000000  0.0000000 )


      isym = 10     120 deg rotation - cart. axis [-1,1,-1]      

 cryst.   s(10) = (     0         -1          0      )
                  (     0          0         -1      )
                  (     1          0          0      )

 cart.    s(10) = (  0.0000000  0.0000000  1.0000000 )
                  ( -1.0000000  0.0000000  0.0000000 )
                  (  0.0000000 -1.0000000  0.0000000 )


      isym = 11     120 deg rotation - cart. axis [1,-1,-1]      

 cryst.   s(11) = (     0         -1          0      )
                  (     0          0          1      )
                  (    -1          0          0      )

 cart.    s(11) = (  0.0000000  0.0000000 -1.0000000 )
                  ( -1.0000000  0.0000000  0.0000000 )
                  (  0.0000000  1.0000000  0.0000000 )


      isym = 12     120 deg rotation - cart. axis [-1,-1,1]      

 cryst.   s(12) = (     0          1          0      )
                  (     0          0         -1      )
                  (    -1          0          0      )

 cart.    s(12) = (  0.0000000  0.0000000 -1.0000000 )
                  (  1.0000000  0.0000000  0.0000000 )
                  (  0.0000000 -1.0000000  0.0000000 )


      isym = 13     inv. 180 deg rotation - cart. axis [1,1,0]   

 cryst.   s(13) = (     0         -1          0      )
                  (    -1          0          0      )
                  (     0          0          1      )

 cart.    s(13) = (  0.0000000 -1.0000000  0.0000000 )
                  ( -1.0000000  0.0000000  0.0000000 )
                  (  0.0000000  0.0000000  1.0000000 )


      isym = 14     inv. 180 deg rotation - cart. axis [1,-1,0]  

 cryst.   s(14) = (     0          1          0      )
                  (     1          0          0      )
                  (     0          0          1      )

 cart.    s(14) = (  0.0000000  1.0000000  0.0000000 )
                  (  1.0000000  0.0000000  0.0000000 )
                  (  0.0000000  0.0000000  1.0000000 )


      isym = 15     inv.  90 deg rotation - cart. axis [0,0,-1]  

 cryst.   s(15) = (     0          1          0      )
                  (    -1          0          0      )
                  (     0          0         -1      )

 cart.    s(15) = (  0.0000000 -1.0000000  0.0000000 )
                  (  1.0000000  0.0000000  0.0000000 )
                  (  0.0000000  0.0000000 -1.0000000 )


      isym = 16     inv.  90 deg rotation - cart. axis [0,0,1]   

 cryst.   s(16) = (     0         -1          0      )
                  (     1          0          0      )
                  (     0          0         -1      )

 cart.    s(16) = (  0.0000000  1.0000000  0.0000000 )
                  ( -1.0000000  0.0000000  0.0000000 )
                  (  0.0000000  0.0000000 -1.0000000 )


      isym = 17     inv. 180 deg rotation - cart. axis [1,0,1]   

 cryst.   s(17) = (     0          0         -1      )
                  (     0          1          0      )
                  (    -1          0          0      )

 cart.    s(17) = (  0.0000000  0.0000000 -1.0000000 )
                  (  0.0000000  1.0000000  0.0000000 )
                  ( -1.0000000  0.0000000  0.0000000 )


      isym = 18     inv. 180 deg rotation - cart. axis [-1,0,1]  

 cryst.   s(18) = (     0          0          1      )
                  (     0          1          0      )
                  (     1          0          0      )

 cart.    s(18) = (  0.0000000  0.0000000  1.0000000 )
                  (  0.0000000  1.0000000  0.0000000 )
                  (  1.0000000  0.0000000  0.0000000 )


      isym = 19     inv.  90 deg rotation - cart. axis [0,1,0]   

 cryst.   s(19) = (     0          0          1      )
                  (     0         -1          0      )
                  (    -1          0          0      )

 cart.    s(19) = (  0.0000000  0.0000000 -1.0000000 )
                  (  0.0000000 -1.0000000  0.0000000 )
                  (  1.0000000  0.0000000  0.0000000 )


      isym = 20     inv.  90 deg rotation - cart. axis [0,-1,0]  

 cryst.   s(20) = (     0          0         -1      )
                  (     0         -1          0      )
                  (     1          0          0      )

 cart.    s(20) = (  0.0000000  0.0000000  1.0000000 )
                  (  0.0000000 -1.0000000  0.0000000 )
                  ( -1.0000000  0.0000000  0.0000000 )


      isym = 21     inv. 180 deg rotation - cart. axis [0,1,1]   

 cryst.   s(21) = (     1          0          0      )
                  (     0          0         -1      )
                  (     0         -1          0      )

 cart.    s(21) = (  1.0000000  0.0000000  0.0000000 )
                  (  0.0000000  0.0000000 -1.0000000 )
                  (  0.0000000 -1.0000000  0.0000000 )


      isym = 22     inv. 180 deg rotation - cart. axis [0,1,-1]  

 cryst.   s(22) = (     1          0          0      )
                  (     0          0          1      )
                  (     0          1          0      )

 cart.    s(22) = (  1.0000000  0.0000000  0.0000000 )
                  (  0.0000000  0.0000000  1.0000000 )
                  (  0.0000000  1.0000000  0.0000000 )


      isym = 23     inv.  90 deg rotation - cart. axis [-1,0,0]  

 cryst.   s(23) = (    -1          0          0      )
                  (     0          0          1      )
                  (     0         -1          0      )

 cart.    s(23) = ( -1.0000000  0.0000000  0.0000000 )
                  (  0.0000000  0.0000000 -1.0000000 )
                  (  0.0000000  1.0000000  0.0000000 )


      isym = 24     inv.  90 deg rotation - cart. axis [1,0,0]   

 cryst.   s(24) = (    -1          0          0      )
                  (     0          0         -1      )
                  (     0          1          0      )

 cart.    s(24) = ( -1.0000000  0.0000000  0.0000000 )
                  (  0.0000000  0.0000000  1.0000000 )
                  (  0.0000000 -1.0000000  0.0000000 )


   Cartesian axes

     site n.     atom                  positions (a.u.)
         1           Ge  tau(   1) = (   0.0000000   0.0000000   0.0000000  )
         2           Si  tau(   2) = (   0.0000000   0.0000000  10.2625355  )
         3           Si  tau(   3) = (   0.0000000  10.2625355   0.0000000  )
         4           Si  tau(   4) = (   0.0000000  10.2625355  10.2625355  )
         5           Si  tau(   5) = (  10.2625355   0.0000000   0.0000000  )
         6           Si  tau(   6) = (  10.2625355   0.0000000  10.2625355  )
         7           Si  tau(   7) = (  10.2625355  10.2625355   0.0000000  )
         8           Si  tau(   8) = (  10.2625355  10.2625355  10.2625355  )
         9           Si  tau(   9) = (   0.0000000   5.1312678   5.1312678  )
        10           Si  tau(  10) = (   0.0000000   5.1312678  15.3938033  )
        11           Si  tau(  11) = (   0.0000000  15.3938033   5.1312678  )
        12           Si  tau(  12) = (   0.0000000  15.3938033  15.3938033  )
        13           Si  tau(  13) = (  10.2625355   5.1312678   5.1312678  )
        14           Si  tau(  14) = (  10.2625355   5.1312678  15.3938033  )
        15           Si  tau(  15) = (  10.2625355  15.3938033   5.1312678  )
        16           Si  tau(  16) = (  10.2625355  15.3938033  15.3938033  )
        17           Si  tau(  17) = (   5.1312678   0.0000000   5.1312678  )
        18           Si  tau(  18) = (   5.1312678   0.0000000  15.3938033  )
        19           Si  tau(  19) = (   5.1312678  10.2625355   5.1312678  )
        20           Si  tau(  20) = (   5.1312678  10.2625355  15.3938033  )
        21           Si  tau(  21) = (  15.3938033   0.0000000   5.1312678  )
        22           Si  tau(  22) = (  15.3938033   0.0000000  15.3938033  )
        23           Si  tau(  23) = (  15.3938033  10.2625355   5.1312678  )
        24           Si  tau(  24) = (  15.3938033  10.2625355  15.3938033  )
        25           Si  tau(  25) = (   5.1312678   5.1312678   0.0000000  )
        26           Si  tau(  26) = (   5.1312678   5.1312678  10.2625355  )
        27           Si  tau(  27) = (   5.1312678  15.3938033   0.0000000  )
        28           Si  tau(  28) = (   5.1312678  15.3938033  10.2625355  )
        29           Si  tau(  29) = (  15.3938033   5.1312678   0.0000000  )
        30           Si  tau(  30) = (  15.3938033   5.1312678  10.2625355  )
        31           Si  tau(  31) = (  15.3938033  15.3938033   0.0000000  )
        32           Si  tau(  32) = (  15.3938033  15.3938033  10.2625355  )
        33           Si  tau(  33) = (   7.6969016   7.6969016   2.5656339  )
        34           Si  tau(  34) = (   7.6969016   7.6969016  12.8281694  )
        35           Si  tau(  35) = (   7.6969016  17.9594371   2.5656339  )
        36           Si  tau(  36) = (   7.6969016  17.9594371  12.8281694  )
        37           Si  tau(  37) = (  17.9594371   7.6969016   2.5656339  )
        38           Si  tau(  38) = (  17.9594371   7.6969016  12.8281694  )
        39           Si  tau(  39) = (  17.9594371  17.9594371   2.5656339  )
        40           Si  tau(  40) = (  17.9594371  17.9594371  12.8281694  )
        41           Si  tau(  41) = (   7.6969016   2.5656339   7.6969016  )
        42           Si  tau(  42) = (   7.6969016   2.5656339  17.9594371  )
        43           Si  tau(  43) = (   7.6969016  12.8281694   7.6969016  )
        44           Si  tau(  44) = (   7.6969016  12.8281694  17.9594371  )
        45           Si  tau(  45) = (  17.9594371   2.5656339   7.6969016  )
        46           Si  tau(  46) = (  17.9594371   2.5656339  17.9594371  )
        47           Si  tau(  47) = (  17.9594371  12.8281694   7.6969016  )
        48           Si  tau(  48) = (  17.9594371  12.8281694  17.9594371  )
        49           Si  tau(  49) = (   2.5656339   7.6969016   7.6969016  )
        50           Si  tau(  50) = (   2.5656339   7.6969016  17.9594371  )
        51           Si  tau(  51) = (   2.5656339  17.9594371   7.6969016  )
        52           Si  tau(  52) = (   2.5656339  17.9594371  17.9594371  )
        53           Si  tau(  53) = (  12.8281694   7.6969016   7.6969016  )
        54           Si  tau(  54) = (  12.8281694   7.6969016  17.9594371  )
        55           Si  tau(  55) = (  12.8281694  17.9594371   7.6969016  )
        56           Si  tau(  56) = (  12.8281694  17.9594371  17.9594371  )
        57           Si  tau(  57) = (   2.5656339   2.5656339   2.5656339  )
        58           Si  tau(  58) = (   2.5656339   2.5656339  12.8281694  )
        59           Si  tau(  59) = (   2.5656339  12.8281694   2.5656339  )
        60           Si  tau(  60) = (   2.5656339  12.8281694  12.8281694  )
        61           Si  tau(  61) = (  12.8281694   2.5656339   2.5656339  )
        62           Si  tau(  62) = (  12.8281694   2.5656339  12.8281694  )
        63           Si  tau(  63) = (  12.8281694  12.8281694   2.5656339  )
        64           Si  tau(  64) = (  12.8281694  12.8281694  12.8281694  )

   Crystallographic axes

     site n.     atom                  positions (cryst. coord.)
         1           Ge  tau(   1) = (  0.0000000  0.0000000  0.0000000  )
         2           Si  tau(   2) = (  0.0000000  0.0000000  0.5000000  )
         3           Si  tau(   3) = (  0.0000000  0.5000000  0.0000000  )
         4           Si  tau(   4) = (  0.0000000  0.5000000  0.5000000  )
         5           Si  tau(   5) = (  0.5000000  0.0000000  0.0000000  )
         6           Si  tau(   6) = (  0.5000000  0.0000000  0.5000000  )
         7           Si  tau(   7) = (  0.5000000  0.5000000  0.0000000  )
         8           Si  tau(   8) = (  0.5000000  0.5000000  0.5000000  )
         9           Si  tau(   9) = (  0.0000000  0.2500000  0.2500000  )
        10           Si  tau(  10) = (  0.0000000  0.2500000  0.7500000  )
        11           Si  tau(  11) = (  0.0000000  0.7500000  0.2500000  )
        12           Si  tau(  12) = (  0.0000000  0.7500000  0.7500000  )
        13           Si  tau(  13) = (  0.5000000  0.2500000  0.2500000  )
        14           Si  tau(  14) = (  0.5000000  0.2500000  0.7500000  )
        15           Si  tau(  15) = (  0.5000000  0.7500000  0.2500000  )
        16           Si  tau(  16) = (  0.5000000  0.7500000  0.7500000  )
        17           Si  tau(  17) = (  0.2500000  0.0000000  0.2500000  )
        18           Si  tau(  18) = (  0.2500000  0.0000000  0.7500000  )
        19           Si  tau(  19) = (  0.2500000  0.5000000  0.2500000  )
        20           Si  tau(  20) = (  0.2500000  0.5000000  0.7500000  )
        21           Si  tau(  21) = (  0.7500000  0.0000000  0.2500000  )
        22           Si  tau(  22) = (  0.7500000  0.0000000  0.7500000  )
        23           Si  tau(  23) = (  0.7500000  0.5000000  0.2500000  )
        24           Si  tau(  24) = (  0.7500000  0.5000000  0.7500000  )
        25           Si  tau(  25) = (  0.2500000  0.2500000  0.0000000  )
        26           Si  tau(  26) = (  0.2500000  0.2500000  0.5000000  )
        27           Si  tau(  27) = (  0.2500000  0.7500000  0.0000000  )
        28           Si  tau(  28) = (  0.2500000  0.7500000  0.5000000  )
        29           Si  tau(  29) = (  0.7500000  0.2500000  0.0000000  )
        30           Si  tau(  30) = (  0.7500000  0.2500000  0.5000000  )
        31           Si  tau(  31) = (  0.7500000  0.7500000  0.0000000  )
        32           Si  tau(  32) = (  0.7500000  0.7500000  0.5000000  )
        33           Si  tau(  33) = (  0.3750000  0.3750000  0.1250000  )
        34           Si  tau(  34) = (  0.3750000  0.3750000  0.6250000  )
        35           Si  tau(  35) = (  0.3750000  0.8750000  0.1250000  )
        36           Si  tau(  36) = (  0.3750000  0.8750000  0.6250000  )
        37           Si  tau(  37) = (  0.8750000  0.3750000  0.1250000  )
        38           Si  tau(  38) = (  0.8750000  0.3750000  0.6250000  )
        39           Si  tau(  39) = (  0.8750000  0.8750000  0.1250000  )
        40           Si  tau(  40) = (  0.8750000  0.8750000  0.6250000  )
        41           Si  tau(  41) = (  0.3750000  0.1250000  0.3750000  )
        42           Si  tau(  42) = (  0.3750000  0.1250000  0.8750000  )
        43           Si  tau(  43) = (  0.3750000  0.6250000  0.3750000  )
        44           Si  tau(  44) = (  0.3750000  0.6250000  0.8750000  )
        45           Si  tau(  45) = (  0.8750000  0.1250000  0.3750000  )
        46           Si  tau(  46) = (  0.8750000  0.1250000  0.8750000  )
        47           Si  tau(  47) = (  0.8750000  0.6250000  0.3750000  )
        48           Si  tau(  48) = (  0.8750000  0.6250000  0.8750000  )
        49           Si  tau(  49) = (  0.1250000  0.3750000  0.3750000  )
        50           Si  tau(  50) = (  0.1250000  0.3750000  0.8750000  )
        51           Si  tau(  51) = (  0.1250000  0.8750000  0.3750000  )
        52           Si  tau(  52) = (  0.1250000  0.8750000  0.8750000  )
        53           Si  tau(  53) = (  0.6250000  0.3750000  0.3750000  )
        54           Si  tau(  54) = (  0.6250000  0.3750000  0.8750000  )
        55           Si  tau(  55) = (  0.6250000  0.8750000  0.3750000  )
        56           Si  tau(  56) = (  0.6250000  0.8750000  0.8750000  )
        57           Si  tau(  57) = (  0.1250000  0.1250000  0.1250000  )
        58           Si  tau(  58) = (  0.1250000  0.1250000  0.6250000  )
        59           Si  tau(  59) = (  0.1250000  0.6250000  0.1250000  )
        60           Si  tau(  60) = (  0.1250000  0.6250000  0.6250000  )
        61           Si  tau(  61) = (  0.6250000  0.1250000  0.1250000  )
        62           Si  tau(  62) = (  0.6250000  0.1250000  0.6250000  )
        63           Si  tau(  63) = (  0.6250000  0.6250000  0.1250000  )
        64           Si  tau(  64) = (  0.6250000  0.6250000  0.6250000  )

     number of k points=    10  gaussian smearing, width (Ry)=  0.0010
                       cart. coord. in units 2pi/alat
        k(    1) = (   0.0000000   0.0000000   0.0000000), wk =   0.0312500
        k(    2) = (   0.0000000   0.0000000   0.0121802), wk =   0.1875000
        k(    3) = (   0.0000000   0.0000000  -0.0243605), wk =   0.0937500
        k(    4) = (   0.0000000   0.0121802   0.0121802), wk =   0.3750000
        k(    5) = (   0.0000000   0.0121802  -0.0243605), wk =   0.3750000
        k(    6) = (   0.0000000  -0.0243605  -0.0243605), wk =   0.0937500
        k(    7) = (   0.0121802   0.0121802   0.0121802), wk =   0.2500000
        k(    8) = (   0.0121802   0.0121802  -0.0243605), wk =   0.3750000
        k(    9) = (   0.0121802  -0.0243605  -0.0243605), wk =   0.1875000
        k(   10) = (  -0.0243605  -0.0243605  -0.0243605), wk =   0.0312500

                       cryst. coord.
        k(    1) = (   0.0000000   0.0000000   0.0000000), wk =   0.0312500
        k(    2) = (   0.0000000   0.0000000   0.2500000), wk =   0.1875000
        k(    3) = (   0.0000000   0.0000000  -0.5000000), wk =   0.0937500
        k(    4) = (   0.0000000   0.2500000   0.2500000), wk =   0.3750000
        k(    5) = (   0.0000000   0.2500000  -0.5000000), wk =   0.3750000
        k(    6) = (   0.0000000  -0.5000000  -0.5000000), wk =   0.0937500
        k(    7) = (   0.2500000   0.2500000   0.2500000), wk =   0.2500000
        k(    8) = (   0.2500000   0.2500000  -0.5000000), wk =   0.3750000
        k(    9) = (   0.2500000  -0.5000000  -0.5000000), wk =   0.1875000
        k(   10) = (  -0.5000000  -0.5000000  -0.5000000), wk =   0.0312500

     Dense  grid:   758657 G-vectors     FFT dimensions: ( 120, 120, 120)

     Smooth grid:   295907 G-vectors     FFT dimensions: (  90,  90,  90)

     Dynamical RAM for                 wfc:      10.02 MB

     Dynamical RAM for     wfc (w. buffer):      10.02 MB

     Dynamical RAM for           str. fact:       2.57 MB

     Dynamical RAM for           local pot:       0.00 MB

     Dynamical RAM for          nlocal pot:      72.14 MB

     Dynamical RAM for                qrad:       0.90 MB

     Dynamical RAM for          rho,v,vnew:       8.47 MB

     Dynamical RAM for               rhoin:       2.82 MB

     Dynamical RAM for            rho*nmix:      20.58 MB

     Dynamical RAM for           G-vectors:       5.07 MB

     Dynamical RAM for          h,s,v(r/c):       2.08 MB

     Dynamical RAM for          <psi|beta>:       2.81 MB

     Dynamical RAM for                 psi:      40.08 MB

     Dynamical RAM for                hpsi:      40.08 MB

     Dynamical RAM for                spsi:      40.08 MB

     Dynamical RAM for      wfcinit/wfcrot:      34.25 MB

     Dynamical RAM for           addusdens:     320.28 MB

     Dynamical RAM for          addusforce:     484.53 MB

     Estimated static dynamical RAM per process >     134.13 MB

     Estimated max dynamical RAM per process >     618.66 MB

     Estimated total dynamical RAM >      54.37 GB

     Self-consistent Calculation

     iteration #  1     ecut=    40.00 Ry     beta=0.70
     ethr =  1.00E-02
Average number of iterations:     3.200000
     Ef =   0.4372963118547792

     total energy              =    -813.78757978 Ry
     Harris-Foulkes estimate   =       0.00000000 Ry
     estimated scf accuracy    <       1.82249802 Ry

     iteration #  2     ecut=    40.00 Ry     beta=0.70
     ethr =  6.85E-04
Average number of iterations:     2.100000
     Ef =   0.4561071980433689

     total energy              =    -813.91237271 Ry
     Harris-Foulkes estimate   =       0.00000000 Ry
     estimated scf accuracy    <       0.06638005 Ry

     iteration #  3     ecut=    40.00 Ry     beta=0.70
     ethr =  2.50E-05
Average number of iterations:    10.300000
     Ef =   0.4621300196827706

     total energy              =    -813.93092687 Ry
     Harris-Foulkes estimate   =       0.00000000 Ry
     estimated scf accuracy    <       0.00839492 Ry

     iteration #  4     ecut=    40.00 Ry     beta=0.70
     ethr =  3.16E-06
Average number of iterations:     8.600000
     Ef =   0.4683993241724433

     total energy              =    -813.92850787 Ry
     Harris-Foulkes estimate   =       0.00000000 Ry
     estimated scf accuracy    <       0.04962180 Ry

     iteration #  5     ecut=    40.00 Ry     beta=0.70
     ethr =  3.16E-06
Average number of iterations:     6.400000
     Ef =   0.4705077646686515

     total energy              =    -813.93532842 Ry
     Harris-Foulkes estimate   =       0.00000000 Ry
     estimated scf accuracy    <       0.00185349 Ry

     iteration #  6     ecut=    40.00 Ry     beta=0.70
     ethr =  6.97E-07
Average number of iterations:     2.200000
     Ef =   0.4712130920354196

     total energy              =    -813.93563757 Ry
     Harris-Foulkes estimate   =       0.00000000 Ry
     estimated scf accuracy    <       0.00017188 Ry

     iteration #  7     ecut=    40.00 Ry     beta=0.70
     ethr =  6.46E-08
Average number of iterations:     3.000000
     Ef =   0.4713789020817913

     total energy              =    -813.93566312 Ry
     Harris-Foulkes estimate   =       0.00000000 Ry
     estimated scf accuracy    <       0.00001452 Ry

     iteration #  8     ecut=    40.00 Ry     beta=0.70
     ethr =  5.46E-09
Average number of iterations:     3.000000
     Ef =   0.4713884432900131

     total energy              =    -813.93566610 Ry
     Harris-Foulkes estimate   =       0.00000000 Ry
     estimated scf accuracy    <       0.00000110 Ry

     iteration #  9     ecut=    40.00 Ry     beta=0.70
     ethr =  4.15E-10
Average number of iterations:     3.000000
     Ef =   0.4713829537137720

     total energy              =    -813.93566645 Ry
     Harris-Foulkes estimate   =       0.00000000 Ry
     estimated scf accuracy    <       0.00000015 Ry

     iteration # 10     ecut=    40.00 Ry     beta=0.70
     ethr =  5.81E-11
Average number of iterations:     2.700000
     Ef =   0.4713820255907352

     total energy              =    -813.93566647 Ry
     Harris-Foulkes estimate   =       0.00000000 Ry
     estimated scf accuracy    <       0.00000005 Ry

     iteration # 11     ecut=    40.00 Ry     beta=0.70
     ethr =  1.80E-11
Average number of iterations:     2.000000
     Ef =   0.4713812241890046

     total energy              =    -813.93566647 Ry
     Harris-Foulkes estimate   =       0.00000000 Ry
     estimated scf accuracy    <          3.5E-09 Ry

     iteration # 12     ecut=    40.00 Ry     beta=0.70
     ethr =  1.30E-12
Average number of iterations:     2.000000
     Ef =   0.4713817621247963
     last descf =   0.3205078533E-03

     End of self-consistent calculation

     End of self-consistent calculation

          k = 0.0000 0.0000 0.0000 ( 37073 PWs)   bands (ev):

   -18.2688 -18.2688 -18.2688 -18.2386 -18.2386  -5.9345  -4.9976  -4.8234
    -4.8234  -4.8234  -4.8214  -4.8214  -4.1148  -3.8629  -3.8629  -3.8629
    -3.8586  -3.8586  -3.8586  -3.8584  -3.8584  -3.8584  -3.8584  -3.8584
    -3.6105  -3.5672  -3.5672  -3.5672  -1.9436  -1.7644  -1.7644  -1.7644
    -1.7613  -1.7613  -1.6831  -1.5981  -1.5981  -1.5981  -1.5953  -1.5953
    -1.5953  -1.5946  -1.5946  -1.5946  -1.5944  -1.5944  -0.9554  -0.9379
    -0.9379  -0.9379   0.4464   0.5637   0.5637   0.5637   0.5672   0.5672
     0.5672   0.5681   0.5681   0.5705   0.5705   0.5705   2.1721   2.1721
     2.1721   2.1817   2.1817   2.1817   2.1825   2.1825   2.1825   2.1827
     2.1856   2.1856   2.2670   2.2728   2.2728   2.2728   2.2811   2.2811
     2.2811   2.2829   2.2829   2.2839   2.2839   2.2839   2.4683   2.5264
     2.5264   2.5300   2.5300   2.5300   3.2043   3.2043   3.2043   3.2045
     3.2045   3.2045   4.1645   4.1645   4.1645   4.1661   4.1661   4.1661
     4.1681   4.1681   4.1681   4.1768   4.1768   4.1768   4.7309   4.7309
     4.7309   4.7333   4.7333   4.7333   4.7334   4.7368   4.7368   4.7402
     4.7402   4.7402   4.8616   4.8616   4.8616   4.8648   4.8648   4.8706
     4.8706   4.8706   6.0678   6.0678   6.0678   6.6467   6.6812   6.6812
     6.6812   6.6824   6.6824   7.0855   7.1108   7.1108   7.1186   7.1186
     7.1186   7.4322   7.4909   7.4909   7.4909   8.3770   8.4257   8.4257
     8.4257   8.4282   8.4282   8.4282   8.4505   8.4505   8.4505   8.4510

     occupation numbers 
     1.0000   1.0000   1.0000   1.0000   1.0000   1.0000   1.0000   1.0000
     1.0000   1.0000   1.0000   1.0000   1.0000   1.0000   1.0000   1.0000
     1.0000   1.0000   1.0000   1.0000   1.0000   1.0000   1.0000   1.0000
     1.0000   1.0000   1.0000   1.0000   1.0000   1.0000   1.0000   1.0000
     1.0000   1.0000   1.0000   1.0000   1.0000   1.0000   1.0000   1.0000
     1.0000   1.0000   1.0000   1.0000   1.0000   1.0000   1.0000   1.0000
     1.0000   1.0000   1.0000   1.0000   1.0000   1.0000   1.0000   1.0000
     1.0000   1.0000   1.0000   1.0000   1.0000   1.0000   1.0000   1.0000
     1.0000   1.0000   1.0000   1.0000   1.0000   1.0000   1.0000   1.0000
     1.0000   1.0000   1.0000   1.0000   1.0000   1.0000   1.0000   1.0000
     1.0000   1.0000   1.0000   1.0000   1.0000   1.0000   1.0000   1.0000
     1.0000   1.0000   1.0000   1.0000   1.0000   1.0000   1.0000   1.0000
     1.0000   1.0000   1.0000   1.0000   1.0000   1.0000   1.0000   1.0000
     1.0000   1.0000   1.0000   1.0000   1.0000   1.0000   1.0000   1.0000
     1.0000   1.0000   1.0000   1.0000   1.0000   1.0000   1.0000   1.0000
     1.0000   1.0000   1.0000   1.0000   1.0000   1.0000   1.0000   1.0000
     1.0000   1.0000   1.0000   1.0000   1.0000   0.0000   0.0000   0.0000
     0.0000   0.0000   0.0000   0.0000   0.0000   0.0000   0.0000   0.0000
     0.0000   0.0000   0.0000   0.0000   0.0000   0.0000   0.0000   0.0000
     0.0000   0.0000   0.0000   0.0000   0.0000   0.0000   0.0000   0.0000

          k = 0.0000 0.0000 0.0122 ( 36941 PWs)   bands (ev):

   -18.2688 -18.2688 -18.2688 -18.2385 -18.2385  -5.8671  -5.3265  -4.8840
    -4.7610  -4.7610  -4.7591  -4.3838  -4.2717  -4.2717  -4.2703  -4.2344
    -3.9148  -3.8243  -3.8243  -3.8225  -3.6763  -3.6185  -3.6185  -3.6181
    -3.4061  -3.3554  -3.3554  -3.3545  -2.7030  -2.2621  -2.1845  -2.1845
    -2.1838  -1.8142  -1.7418  -1.7418  -1.7389  -1.6568  -1.6232  -1.6232
    -1.6217  -1.0964  -1.0434  -1.0434  -1.0416  -0.8013  -0.7742  -0.7741
    -0.7741  -0.7616  -0.0356   0.0098   0.0098   0.0118   0.1966   0.2223
     0.2247   0.2247   1.1196   1.1570   1.1570   1.1570   1.3991   1.8672
     1.8672   1.8689   1.8719   1.9467   1.9491   1.9491   1.9530   2.2453
     2.2829   2.2852   2.2852   2.3009   2.3015   2.3015   2.3060   2.7154
     2.7231   2.7231   2.7254   2.7336   2.7336   2.7346   2.7348   2.7528
     2.7561   2.7561   2.7569   3.0106   3.0112   3.0112   3.0123   3.2662
     3.2662   3.6318   3.7540   3.7540   3.8883   3.8921   3.8955   3.8955
     4.2150   4.2163   4.2163   4.2184   4.3305   4.3305   4.3317   4.3367
     4.4373   4.4379   4.4379   4.4392   4.6802   4.6802   4.7499   4.7533
     4.7544   4.7544   4.8302   4.8302   4.8313   4.8352   4.8415   4.8447
     4.8484   4.8484   5.6321   5.8026   5.8026   6.5439   6.7803   6.9908
     7.0300   7.0466   7.0466   7.0467   7.4943   7.5097   7.5187   7.5187
     7.5428   7.7970   7.8470   7.8470   7.8513   8.2216   8.3792   8.4106
     8.4106   8.4132   8.4211   8.4349   8.4349   8.4397   8.4650   8.9424

     occupation numbers 
     1.0000   1.0000   1.0000   1.0000   1.0000   1.0000   1.0000   1.0000
     1.0000   1.0000   1.0000   1.0000   1.0000   1.0000   1.0000   1.0000
     1.0000   1.0000   1.0000   1.0000   1.0000   1.0000   1.0000   1.0000
     1.0000   1.0000   1.0000   1.0000   1.0000   1.0000   1.0000   1.0000
     1.0000   1.0000   1.0000   1.0000   1.0000   1.0000   1.0000   1.0000
     1.0000   1.0000   1.0000   1.0000   1.0000   1.0000   1.0000   1.0000
     1.0000   1.0000   1.0000   1.0000   1.0000   1.0000   1.0000   1.0000
     1.0000   1.0000   1.0000   1.0000   1.0000   1.0000   1.0000   1.0000
     1.0000   1.0000   1.0000   1.0000   1.0000   1.0000   1.0000   1.0000
     1.0000   1.0000   1.0000   1.0000   1.0000   1.0000   1.0000   1.0000
     1.0000   1.0000   1.0000   1.0000   1.0000   1.0000   1.0000   1.0000
     1.0000   1.0000   1.0000   1.0000   1.0000   1.0000   1.0000   1.0000
     1.0000   1.0000   1.0000   1.0000   1.0000   1.0000   1.0000   1.0000
     1.0000   1.0000   1.0000   1.0000   1.0000   1.0000   1.0000   1.0000
     1.0000   1.0000   1.0000   1.0000   1.0000   1.0000   1.0000   1.0000
     1.0000   1.0000   1.0000   1.0000   1.0000   1.0000   1.0000   1.0000
     1.0000   1.0000   1.0000   1.0000   1.0000   0.0000   0.0000   0.0000
     0.0000   0.0000   0.0000   0.0000   0.0000   0.0000   0.0000   0.0000
     0.0000   0.0000   0.0000   0.0000   0.0000   0.0000   0.0000   0.0000
     0.0000   0.0000   0.0000   0.0000   0.0000   0.0000   0.0000   0.0000

          k = 0.0000 0.0000-0.0244 ( 36906 PWs)   bands (ev):

   -18.2688 -18.2688 -18.2688 -18.2385 -18.2385  -5.6933  -5.6307  -4.7872
    -4.5771  -4.5771  -4.5754  -4.5742  -4.5737  -4.5737  -4.5732  -3.8963
    -3.7303  -3.7303  -3.7278  -3.7272  -3.7270  -3.7270  -3.7270  -3.5317
    -3.5126  -2.9101  -2.7895  -2.7851  -2.7851  -2.7844  -2.7844  -2.7843
    -2.7839  -1.7981  -1.6871  -1.6871  -1.6826  -1.6821  -1.6820  -1.6820
    -1.6820  -0.6351  -0.5200  -0.5200  -0.5166  -0.5166  -0.5163  -0.5162
    -0.5161  -0.3744  -0.3456  -0.3434  -0.3434  -0.3372  -0.3369  -0.3360
    -0.3360   0.2851   0.3051   1.6800   1.7535   1.7535   1.7556   1.7560
     1.7582   1.7604   1.7604   1.7970   1.7970   1.7990   1.8037   1.8038
     1.8038   1.8040   1.8059   2.6205   2.6205   2.6208   2.6247   2.6252
     2.6272   2.6272   2.6296   3.3221   3.3237   3.3264   3.3264   3.3280
     3.3308   3.3345   3.3345   3.4473   3.4473   3.4530   3.4530   3.4608
     3.4618   3.4618   3.4622   3.4642   3.4657   3.4657   3.4674   3.5651
     3.5792   3.5792   3.5819   3.5836   3.5853   3.5853   3.5857   4.6233
     4.6260   4.6260   4.6279   4.6307   4.6307   4.6317   4.6397   4.6940
     4.7174   4.7926   4.7962   4.7963   4.7963   4.7963   4.7996   4.8031
     4.8031   5.2503   5.2503   5.2607   5.2607   6.5776   6.5917   7.5057
     7.5105   7.9258   7.9437   7.9454   7.9454   7.9484   7.9651   7.9669
     7.9669   8.0110   8.0239   8.2749   8.3279   8.3279   8.3301   8.3322
     8.3339   8.3339   8.3712   8.4356   8.4403   8.4407   8.4408   8.4454

     occupation numbers 
     1.0000   1.0000   1.0000   1.0000   1.0000   1.0000   1.0000   1.0000
     1.0000   1.0000   1.0000   1.0000   1.0000   1.0000   1.0000   1.0000
     1.0000   1.0000   1.0000   1.0000   1.0000   1.0000   1.0000   1.0000
     1.0000   1.0000   1.0000   1.0000   1.0000   1.0000   1.0000   1.0000
     1.0000   1.0000   1.0000   1.0000   1.0000   1.0000   1.0000   1.0000
     1.0000   1.0000   1.0000   1.0000   1.0000   1.0000   1.0000   1.0000
     1.0000   1.0000   1.0000   1.0000   1.0000   1.0000   1.0000   1.0000
     1.0000   1.0000   1.0000   1.0000   1.0000   1.0000   1.0000   1.0000
     1.0000   1.0000   1.0000   1.0000   1.0000   1.0000   1.0000   1.0000
     1.0000   1.0000   1.0000   1.0000   1.0000   1.0000   1.0000   1.0000
     1.0000   1.0000   1.0000   1.0000   1.0000   1.0000   1.0000   1.0000
     1.0000   1.0000   1.0000   1.0000   1.0000   1.0000   1.0000   1.0000
     1.0000   1.0000   1.0000   1.0000   1.0000   1.0000   1.0000   1.0000
     1.0000   1.0000   1.0000   1.0000   1.0000   1.0000   1.0000   1.0000
     1.0000   1.0000   1.0000   1.0000   1.0000   1.0000   1.0000   1.0000
     1.0000   1.0000   1.0000   1.0000   1.0000   1.0000   1.0000   1.0000
     1.0000   1.0000   1.0000   1.0000   1.0000   0.0000   0.0000   0.0000
     0.0000   0.0000   0.0000   0.0000   0.0000   0.0000   0.0000   0.0000
     0.0000   0.0000   0.0000   0.0000   0.0000   0.0000   0.0000   0.0000
     0.0000   0.0000   0.0000   0.0000   0.0000   0.0000   0.0000   0.0000

          k = 0.0000 0.0122 0.0122 ( 36919 PWs)   bands (ev):

   -18.2688 -18.2688 -18.2688 -18.2385 -18.2385  -5.8001  -5.2912  -5.2272
    -4.7943  -4.7074  -4.6997  -4.3471  -4.2225  -4.2210  -4.2198  -4.1838
    -4.1682  -3.9031  -3.8590  -3.7522  -3.7224  -3.4882  -3.4311  -3.3856
    -3.3486  -3.3484  -3.3473  -2.9424  -2.6817  -2.6458  -2.4413  -2.3902
    -2.3758  -2.3663  -2.0562  -2.0266  -1.8437  -1.6291  -1.2777  -1.2433
    -0.9693  -0.9146  -0.8981  -0.8849  -0.8716  -0.8687  -0.7816  -0.7651
    -0.4609  -0.4154  -0.4062  -0.2768  -0.2492  -0.2455  -0.2444   0.4651
     0.4898   0.7497   0.7765   0.7820   0.7822   1.2591   1.2799   1.6854
     1.8363   1.8415   1.8449   1.9033   1.9081   1.9682   1.9853   2.1318
     2.1366   2.3257   2.3315   2.3327   2.3354   2.3851   2.3861   2.5112
     2.6953   2.6965   2.9524   2.9556   2.9747   2.9761   3.0357   3.0370
     3.1247   3.1267   3.1881   3.1972   3.1987   3.1995   3.2281   3.2469
     3.2531   3.3140   3.4847   3.4851   3.7870   3.7890   3.9117   3.9149
     4.0362   4.0374   4.0709   4.0721   4.1296   4.2487   4.2547   4.2595
     4.2596   4.2635   4.2635   4.4013   4.4064   4.6064   4.6077   4.6126
     4.6186   4.7358   4.7408   4.8232   4.8261   4.8263   4.8288   4.9828
     4.9839   5.0046   5.3308   5.5351   6.0044   6.8023   6.9242   6.9354
     7.1798   7.1868   7.3276   7.3379   7.7041   7.7178   7.7525   7.8286
     7.8674   7.8904   7.9331   7.9344   8.2437   8.2686   8.2979   8.3128
     8.4399   8.4557   8.4562   8.4586   8.4877   8.5039   8.7353   8.8275

     occupation numbers 
     1.0000   1.0000   1.0000   1.0000   1.0000   1.0000   1.0000   1.0000
     1.0000   1.0000   1.0000   1.0000   1.0000   1.0000   1.0000   1.0000
     1.0000   1.0000   1.0000   1.0000   1.0000   1.0000   1.0000   1.0000
     1.0000   1.0000   1.0000   1.0000   1.0000   1.0000   1.0000   1.0000
     1.0000   1.0000   1.0000   1.0000   1.0000   1.0000   1.0000   1.0000
     1.0000   1.0000   1.0000   1.0000   1.0000   1.0000   1.0000   1.0000
     1.0000   1.0000   1.0000   1.0000   1.0000   1.0000   1.0000   1.0000
     1.0000   1.0000   1.0000   1.0000   1.0000   1.0000   1.0000   1.0000
     1.0000   1.0000   1.0000   1.0000   1.0000   1.0000   1.0000   1.0000
     1.0000   1.0000   1.0000   1.0000   1.0000   1.0000   1.0000   1.0000
     1.0000   1.0000   1.0000   1.0000   1.0000   1.0000   1.0000   1.0000
     1.0000   1.0000   1.0000   1.0000   1.0000   1.0000   1.0000   1.0000
     1.0000   1.0000   1.0000   1.0000   1.0000   1.0000   1.0000   1.0000
     1.0000   1.0000   1.0000   1.0000   1.0000   1.0000   1.0000   1.0000
     1.0000   1.0000   1.0000   1.0000   1.0000   1.0000   1.0000   1.0000
     1.0000   1.0000   1.0000   1.0000   1.0000   1.0000   1.0000   1.0000
     1.0000   1.0000   1.0000   1.0000   1.0000   0.0000   0.0000   0.0000
     0.0000   0.0000   0.0000   0.0000   0.0000   0.0000   0.0000   0.0000
     0.0000   0.0000   0.0000   0.0000   0.0000   0.0000   0.0000   0.0000
     0.0000   0.0000   0.0000   0.0000   0.0000   0.0000   0.0000   0.0000

          k = 0.0000 0.0122-0.0244 ( 36970 PWs)   bands (ev):

   -18.2688 -18.2688 -18.2688 -18.2386 -18.2385  -5.6291  -5.5637  -5.0946
    -5.0319  -4.6292  -4.5193  -4.5165  -4.5159  -4.1790  -4.0773  -4.0752
    -4.0750  -4.0176  -3.9966  -3.5266  -3.4617  -3.4039  -3.3524  -3.3515
    -3.3512  -3.1106  -3.0793  -2.8983  -2.8419  -2.8401  -2.8401  -2.5660
    -2.5311  -2.4869  -2.4694  -1.9425  -1.9147  -1.4739  -1.4475  -0.9112
    -0.8616  -0.8203  -0.7966  -0.6975  -0.6569  -0.6556  -0.6556  -0.6373
    -0.6279  -0.6266  -0.6253  -0.2051  -0.1833   0.1187   0.1481   0.1485
     0.1489   0.2362   0.2523   0.9202   0.9394   1.3634   1.3932   1.3948
     1.3968   1.6371   1.6393   2.0487   2.0522   2.0549   2.0573   2.0741
     2.0757   2.1705   2.1711   2.5418   2.5563   2.5669   2.5713   2.8585
     2.8623   2.9352   2.9356   3.1069   3.1149   3.1184   3.1187   3.1950
     3.1975   3.2309   3.2310   3.3062   3.3100   3.3823   3.3855   3.5661
     3.5670   3.5689   3.5704   3.6487   3.6505   3.6900   3.6930   3.6951
     3.6955   3.8346   3.8380   3.8984   3.8986   3.9816   3.9906   3.9917
     3.9955   4.1428   4.1559   4.3907   4.3924   4.3938   4.3953   4.5679
     4.5712   4.5718   4.5768   4.7912   4.7925   4.7937   4.7978   4.9785
     4.9871   5.3438   5.3451   5.6393   5.6409   6.9753   6.9896   7.2843
     7.2938   7.7543   7.7682   7.8130   7.8166   7.8626   7.8749   8.1293
     8.1352   8.1938   8.2018   8.2843   8.2912   8.2954   8.3108   8.3389
     8.3689   8.3702   8.3826   8.3828   8.4023   8.5211   8.5273   8.5281

     occupation numbers 
     1.0000   1.0000   1.0000   1.0000   1.0000   1.0000   1.0000   1.0000
     1.0000   1.0000   1.0000   1.0000   1.0000   1.0000   1.0000   1.0000
     1.0000   1.0000   1.0000   1.0000   1.0000   1.0000   1.0000   1.0000
     1.0000   1.0000   1.0000   1.0000   1.0000   1.0000   1.0000   1.0000
     1.0000   1.0000   1.0000   1.0000   1.0000   1.0000   1.0000   1.0000
     1.0000   1.0000   1.0000   1.0000   1.0000   1.0000   1.0000   1.0000
     1.0000   1.0000   1.0000   1.0000   1.0000   1.0000   1.0000   1.0000
     1.0000   1.0000   1.0000   1.0000   1.0000   1.0000   1.0000   1.0000
     1.0000   1.0000   1.0000   1.0000   1.0000   1.0000   1.0000   1.0000
     1.0000   1.0000   1.0000   1.0000   1.0000   1.0000   1.0000   1.0000
     1.0000   1.0000   1.0000   1.0000   1.0000   1.0000   1.0000   1.0000
     1.0000   1.0000   1.0000   1.0000   1.0000   1.0000   1.0000   1.0000
     1.0000   1.0000   1.0000   1.0000   1.0000   1.0000   1.0000   1.0000
     1.0000   1.0000   1.0000   1.0000   1.0000   1.0000   1.0000   1.0000
     1.0000   1.0000   1.0000   1.0000   1.0000   1.0000   1.0000   1.0000
     1.0000   1.0000   1.0000   1.0000   1.0000   1.0000   1.0000   1.0000
     1.0000   1.0000   1.0000   1.0000   1.0000   0.0000   0.0000   0.0000
     0.0000   0.0000   0.0000   0.0000   0.0000   0.0000   0.0000   0.0000
     0.0000   0.0000   0.0000   0.0000   0.0000   0.0000   0.0000   0.0000
     0.0000   0.0000   0.0000   0.0000   0.0000   0.0000   0.0000   0.0000

          k = 0.0000-0.0244-0.0244 ( 37020 PWs)   bands (ev):

   -18.2688 -18.2688 -18.2688 -18.2386 -18.2385  -5.4839  -5.3638  -5.3638
    -5.3627  -4.5409  -4.3518  -4.3471  -4.3471  -4.3459  -4.3459  -4.3459
    -4.3457  -3.5010  -3.3157  -3.3157  -3.3102  -3.3102  -3.3102  -3.3101
    -3.3101  -3.1184  -3.0317  -3.0317  -3.0298  -3.0295  -3.0294  -3.0290
    -3.0290  -2.2285  -2.1724  -2.1711  -2.1711  -1.2342  -1.1785  -1.1736
    -1.1736  -0.8139  -0.7502  -0.7502  -0.7482  -0.7434  -0.7428  -0.7424
    -0.7424  -0.0072   0.0863   0.0876   0.0876   0.0878   0.0878   0.0881
     0.0884   0.7035   0.7518   0.7518   0.7532   0.7569   0.7584   0.7584
     0.7616   1.7251   1.7251   1.7261   1.7310   2.5666   2.5836   2.5837
     2.5837   2.5867   2.5904   2.5904   2.5904   2.6736   2.6736   2.6769
     2.6776   2.6777   2.6798   2.6799   2.6799   3.2838   3.2869   3.2876
     3.2876   3.2898   3.2898   3.2909   3.2917   3.3316   3.3572   3.3644
     3.3644   3.6318   3.6318   3.6337   3.6354   3.8896   3.8896   3.8938
     3.8942   3.8948   3.8948   3.8975   3.8986   4.1914   4.2089   4.2097
     4.2097   4.2123   4.2128   4.2128   4.2211   4.4169   4.4180   4.4180
     4.4298   4.4700   4.4700   4.4709   4.4727   4.4728   4.4742   4.4818
     4.4818   5.7685   5.7698   5.7802   5.7802   7.1682   7.1682   7.1693
     7.1896   7.9058   7.9261   7.9283   7.9283   7.9340   7.9430   7.9507
     7.9507   8.2028   8.2230   8.2240   8.2240   8.2249   8.2296   8.2296
     8.2659   8.6098   8.6171   8.6186   8.6186   8.6195   8.6371   8.6371

     occupation numbers 
     1.0000   1.0000   1.0000   1.0000   1.0000   1.0000   1.0000   1.0000
     1.0000   1.0000   1.0000   1.0000   1.0000   1.0000   1.0000   1.0000
     1.0000   1.0000   1.0000   1.0000   1.0000   1.0000   1.0000   1.0000
     1.0000   1.0000   1.0000   1.0000   1.0000   1.0000   1.0000   1.0000
     1.0000   1.0000   1.0000   1.0000   1.0000   1.0000   1.0000   1.0000
     1.0000   1.0000   1.0000   1.0000   1.0000   1.0000   1.0000   1.0000
     1.0000   1.0000   1.0000   1.0000   1.0000   1.0000   1.0000   1.0000
     1.0000   1.0000   1.0000   1.0000   1.0000   1.0000   1.0000   1.0000
     1.0000   1.0000   1.0000   1.0000   1.0000   1.0000   1.0000   1.0000
     1.0000   1.0000   1.0000   1.0000   1.0000   1.0000   1.0000   1.0000
     1.0000   1.0000   1.0000   1.0000   1.0000   1.0000   1.0000   1.0000
     1.0000   1.0000   1.0000   1.0000   1.0000   1.0000   1.0000   1.0000
     1.0000   1.0000   1.0000   1.0000   1.0000   1.0000   1.0000   1.0000
     1.0000   1.0000   1.0000   1.0000   1.0000   1.0000   1.0000   1.0000
     1.0000   1.0000   1.0000   1.0000   1.0000   1.0000   1.0000   1.0000
     1.0000   1.0000   1.0000   1.0000   1.0000   1.0000   1.0000   1.0000
     1.0000   1.0000   1.0000   1.0000   1.0000   0.0000   0.0000   0.0000
     0.0000   0.0000   0.0000   0.0000   0.0000   0.0000   0.0000   0.0000
     0.0000   0.0000   0.0000   0.0000   0.0000   0.0000   0.0000   0.0000
     0.0000   0.0000   0.0000   0.0000   0.0000   0.0000   0.0000   0.0000

          k = 0.0122 0.0122 0.0122 ( 36954 PWs)   bands (ev):

   -18.2688 -18.2688 -18.2688 -18.2385 -18.2385  -5.7337  -5.2544  -5.1625
    -5.1625  -4.7345  -4.6533  -4.6533  -4.2596  -4.1663  -4.1122  -4.1122
    -3.8086  -3.6874  -3.6874  -3.6845  -3.6843  -3.6843  -3.5192  -3.4821
    -3.4821  -3.0337  -2.9785  -2.9785  -2.6737  -2.6139  -2.6139  -2.4995
    -2.4353  -2.4353  -2.4339  -2.4337  -2.4337  -0.9985  -0.8818  -0.8818
    -0.8789  -0.8783  -0.8783  -0.8013  -0.7771  -0.7771  -0.7216  -0.7128
    -0.7128  -0.6188  -0.5943  -0.5943   0.0798   0.1539   0.2017   0.2017
     0.2043   0.2057   0.2057   1.0749   1.1074   1.1074   1.3978   1.4160
     1.4160   1.9662   1.9671   1.9671   1.9727   1.9745   1.9745   2.0340
     2.0401   2.0401   2.6033   2.6058   2.6058   2.7037   2.7132   2.7132
     2.7172   2.7197   2.7197   2.7984   2.8208   2.8208   3.0825   3.0840
     3.0840   3.0857   3.0862   3.0862   3.3703   3.3739   3.3743   3.3743
     3.3758   3.3758   3.7277   3.7332   3.7332   3.7612   3.7646   3.7646
     3.8495   3.8506   3.8506   4.1238   4.1239   4.1239   4.1255   4.1255
     4.1264   4.1728   4.1747   4.1747   4.4443   4.4964   4.5013   4.5013
     4.7387   4.7439   4.7439   4.8065   4.8065   4.8100   4.9774   4.9774
     5.2873   5.2939   5.2939   5.7769   5.7769   6.8516   6.8693   6.8693
     7.3228   7.3357   7.3357   7.6025   7.8052   7.8268   7.8268   7.9419
     7.9506   7.9506   8.1322   8.1455   8.1455   8.1549   8.1799   8.1799
     8.3653   8.3656   8.3656   8.3658   8.3882   8.3882   8.4780   8.6674

     occupation numbers 
     1.0000   1.0000   1.0000   1.0000   1.0000   1.0000   1.0000   1.0000
     1.0000   1.0000   1.0000   1.0000   1.0000   1.0000   1.0000   1.0000
     1.0000   1.0000   1.0000   1.0000   1.0000   1.0000   1.0000   1.0000
     1.0000   1.0000   1.0000   1.0000   1.0000   1.0000   1.0000   1.0000
     1.0000   1.0000   1.0000   1.0000   1.0000   1.0000   1.0000   1.0000
     1.0000   1.0000   1.0000   1.0000   1.0000   1.0000   1.0000   1.0000
     1.0000   1.0000   1.0000   1.0000   1.0000   1.0000   1.0000   1.0000
     1.0000   1.0000   1.0000   1.0000   1.0000   1.0000   1.0000   1.0000
     1.0000   1.0000   1.0000   1.0000   1.0000   1.0000   1.0000   1.0000
     1.0000   1.0000   1.0000   1.0000   1.0000   1.0000   1.0000   1.0000
     1.0000   1.0000   1.0000   1.0000   1.0000   1.0000   1.0000   1.0000
     1.0000   1.0000   1.0000   1.0000   1.0000   1.0000   1.0000   1.0000
     1.0000   1.0000   1.0000   1.0000   1.0000   1.0000   1.0000   1.0000
     1.0000   1.0000   1.0000   1.0000   1.0000   1.0000   1.0000   1.0000
     1.0000   1.0000   1.0000   1.0000   1.0000   1.0000   1.0000   1.0000
     1.0000   1.0000   1.0000   1.0000   1.0000   1.0000   1.0000   1.0000
     1.0000   1.0000   1.0000   1.0000   1.0000   0.0000   0.0000   0.0000
     0.0000   0.0000   0.0000   0.0000   0.0000   0.0000   0.0000   0.0000
     0.0000   0.0000   0.0000   0.0000   0.0000   0.0000   0.0000   0.0000
     0.0000   0.0000   0.0000   0.0000   0.0000   0.0000   0.0000   0.0000

          k = 0.0122 0.0122-0.0244 ( 36904 PWs)   bands (ev):

   -18.2688 -18.2688 -18.2688 -18.2385 -18.2385  -5.5658  -5.4970  -5.0781
    -4.9711  -4.9701  -4.9688  -4.5326  -4.4815  -4.0574  -3.9486  -3.9473
    -3.9465  -3.6784  -3.5930  -3.5900  -3.5898  -3.4421  -3.4142  -3.2153
    -3.1630  -3.1118  -3.0745  -3.0712  -3.0712  -2.7184  -2.6483  -2.6482
    -2.6469  -2.5632  -2.5315  -2.5289  -2.5288  -0.9410  -0.8196  -0.8166
    -0.8164  -0.8132  -0.8095  -0.8057  -0.8049  -0.7749  -0.7712  -0.3976
    -0.3426  -0.3390  -0.3390  -0.3150  -0.3078  -0.3029  -0.3014   0.1558
     0.1767   0.6482   0.6902   0.6923   0.6929   0.7181   0.7235   1.8955
     1.9014   1.9026   1.9043   2.0835   2.1088   2.1132   2.1163   2.1950
     2.2002   2.2012   2.2023   2.2913   2.2927   2.2954   2.2977   2.8275
     2.8332   2.8885   2.8931   3.0914   3.0988   3.0989   3.1022   3.3042
     3.3062   3.3063   3.3076   3.3098   3.3151   3.3186   3.3190   3.4834
     3.4868   3.4881   3.4908   3.5523   3.5571   3.6307   3.6413   3.7150
     3.7157   3.7169   3.7178   3.9618   3.9619   3.9646   3.9662   4.2798
     4.2808   4.2818   4.2836   4.2871   4.2881   4.2898   4.2980   4.3012
     4.3041   4.5142   4.5201   5.1685   5.1741   5.2367   5.2383   5.2421
     5.2463   5.2773   5.2887   5.5113   5.5153   7.0354   7.0488   7.3476
     7.3650   7.3659   7.3672   7.8157   7.8407   7.8411   7.8444   7.8854
     7.9002   7.9088   7.9119   8.0010   8.0107   8.0296   8.0526   8.2902
     8.3006   8.3291   8.3478   8.3483   8.3517   8.4797   8.4922   8.5620

     occupation numbers 
     1.0000   1.0000   1.0000   1.0000   1.0000   1.0000   1.0000   1.0000
     1.0000   1.0000   1.0000   1.0000   1.0000   1.0000   1.0000   1.0000
     1.0000   1.0000   1.0000   1.0000   1.0000   1.0000   1.0000   1.0000
     1.0000   1.0000   1.0000   1.0000   1.0000   1.0000   1.0000   1.0000
     1.0000   1.0000   1.0000   1.0000   1.0000   1.0000   1.0000   1.0000
     1.0000   1.0000   1.0000   1.0000   1.0000   1.0000   1.0000   1.0000
     1.0000   1.0000   1.0000   1.0000   1.0000   1.0000   1.0000   1.0000
     1.0000   1.0000   1.0000   1.0000   1.0000   1.0000   1.0000   1.0000
     1.0000   1.0000   1.0000   1.0000   1.0000   1.0000   1.0000   1.0000
     1.0000   1.0000   1.0000   1.0000   1.0000   1.0000   1.0000   1.0000
     1.0000   1.0000   1.0000   1.0000   1.0000   1.0000   1.0000   1.0000
     1.0000   1.0000   1.0000   1.0000   1.0000   1.0000   1.0000   1.0000
     1.0000   1.0000   1.0000   1.0000   1.0000   1.0000   1.0000   1.0000
     1.0000   1.0000   1.0000   1.0000   1.0000   1.0000   1.0000   1.0000
     1.0000   1.0000   1.0000   1.0000   1.0000   1.0000   1.0000   1.0000
     1.0000   1.0000   1.0000   1.0000   1.0000   1.0000   1.0000   1.0000
     1.0000   1.0000   1.0000   1.0000   1.0000   0.0000   0.0000   0.0000
     0.0000   0.0000   0.0000   0.0000   0.0000   0.0000   0.0000   0.0000
     0.0000   0.0000   0.0000   0.0000   0.0000   0.0000   0.0000   0.0000
     0.0000   0.0000   0.0000   0.0000   0.0000   0.0000   0.0000   0.0000

          k = 0.0122-0.0244-0.0244 ( 36900 PWs)   bands (ev):

   -18.2688 -18.2688 -18.2688 -18.2385 -18.2385  -5.4260  -5.2986  -5.2986
    -5.2975  -4.8765  -4.7843  -4.7843  -4.7835  -3.9283  -3.8043  -3.8043
    -3.8039  -3.4653  -3.2806  -3.2806  -3.2754  -3.2754  -3.2753  -3.2752
    -3.2752  -3.1499  -3.0813  -3.0813  -3.0787  -3.0786  -3.0784  -3.0781
    -3.0781  -2.5991  -2.5490  -2.5490  -2.5490  -0.9260  -0.8501  -0.8490
    -0.8490  -0.6913  -0.6296  -0.6296  -0.6278  -0.6238  -0.6232  -0.6228
    -0.6228  -0.1275  -0.0407  -0.0404  -0.0404  -0.0387  -0.0383  -0.0381
    -0.0381   0.1666   0.1874   0.1874   0.1892   1.3712   1.3961   1.3961
     1.3965   1.9288   1.9305   1.9305   1.9358   2.5243   2.5426   2.5426
     2.5427   2.5476   2.5501   2.5501   2.5508   2.5598   2.5598   2.5622
     2.5635   2.5643   2.5655   2.5655   2.5656   2.8457   2.8664   2.8704
     2.8704   3.3021   3.3118   3.3118   3.3151   3.5410   3.5416   3.5420
     3.5420   3.5453   3.5460   3.5460   3.5472   3.6878   3.6878   3.6893
     3.6909   3.9172   3.9172   3.9208   3.9209   3.9220   3.9220   3.9230
     3.9250   4.1197   4.1211   4.1211   4.1212   4.8680   4.8701   4.8701
     4.8767   4.8824   4.8839   4.8896   4.8896   5.0020   5.0064   5.0064
     5.0127   5.6349   5.6363   5.6460   5.6460   7.2488   7.2505   7.2505
     7.2713   7.5458   7.5669   7.5669   7.5670   7.5689   7.5876   7.5876
     7.5887   7.8505   7.8539   7.8539   7.8731   8.0260   8.0461   8.0461
     8.0462   8.0462   8.0672   8.0672   8.0683   8.1379   8.1723   8.1723

     occupation numbers 
     1.0000   1.0000   1.0000   1.0000   1.0000   1.0000   1.0000   1.0000
     1.0000   1.0000   1.0000   1.0000   1.0000   1.0000   1.0000   1.0000
     1.0000   1.0000   1.0000   1.0000   1.0000   1.0000   1.0000   1.0000
     1.0000   1.0000   1.0000   1.0000   1.0000   1.0000   1.0000   1.0000
     1.0000   1.0000   1.0000   1.0000   1.0000   1.0000   1.0000   1.0000
     1.0000   1.0000   1.0000   1.0000   1.0000   1.0000   1.0000   1.0000
     1.0000   1.0000   1.0000   1.0000   1.0000   1.0000   1.0000   1.0000
     1.0000   1.0000   1.0000   1.0000   1.0000   1.0000   1.0000   1.0000
     1.0000   1.0000   1.0000   1.0000   1.0000   1.0000   1.0000   1.0000
     1.0000   1.0000   1.0000   1.0000   1.0000   1.0000   1.0000   1.0000
     1.0000   1.0000   1.0000   1.0000   1.0000   1.0000   1.0000   1.0000
     1.0000   1.0000   1.0000   1.0000   1.0000   1.0000   1.0000   1.0000
     1.0000   1.0000   1.0000   1.0000   1.0000   1.0000   1.0000   1.0000
     1.0000   1.0000   1.0000   1.0000   1.0000   1.0000   1.0000   1.0000
     1.0000   1.0000   1.0000   1.0000   1.0000   1.0000   1.0000   1.0000
     1.0000   1.0000   1.0000   1.0000   1.0000   1.0000   1.0000   1.0000
     1.0000   1.0000   1.0000   1.0000   1.0000   0.0000   0.0000   0.0000
     0.0000   0.0000   0.0000   0.0000   0.0000   0.0000   0.0000   0.0000
     0.0000   0.0000   0.0000   0.0000   0.0000   0.0000   0.0000   0.0000
     0.0000   0.0000   0.0000   0.0000   0.0000   0.0000   0.0000   0.0000

          k =-0.0244-0.0244-0.0244 ( 37056 PWs)   bands (ev):

   -18.2688 -18.2688 -18.2688 -18.2386 -18.2386  -5.3170  -5.1053  -5.1053
    -5.1053  -5.1033  -5.1030  -5.1030  -5.1030  -3.6156  -3.1925  -3.1925
    -3.1925  -3.1844  -3.1844  -3.1844  -3.1843  -3.1843  -3.1840  -3.1840
    -3.1840  -3.1839  -3.1836  -3.1836  -3.1836  -3.1834  -3.1834  -3.1834
    -3.1833  -3.1833  -3.1832  -3.1832  -3.1832  -0.5919  -0.3476  -0.3476
    -0.3476  -0.3355  -0.3355  -0.3355  -0.3349  -0.3348  -0.3348  -0.3348
    -0.3348  -0.3348  -0.3347  -0.3347  -0.3347  -0.3340  -0.3340  -0.3340
    -0.3340  -0.3340  -0.3325  -0.3325  -0.3325   2.0593   2.1097   2.1097
     2.1097   2.1127   2.1181   2.1181   2.1181   2.4669   2.4881   2.4881
     2.4881   2.5016   2.5016   2.5016   2.5020   2.5020   2.5020   2.5024
     2.5024   2.5024   2.5026   2.5026   2.5026   2.5026   2.5026   2.5027
     2.5077   2.5077   2.5077   2.5082   2.5082   3.8477   3.8477   3.8477
     3.8496   3.8496   3.8496   3.8536   3.8536   3.8536   3.8542   3.8544
     3.8544   3.8544   3.8547   3.8547   3.8548   3.8548   3.8548   3.8548
     3.8570   3.8570   3.8607   3.8607   3.8607   5.2988   5.2988   5.2988
     5.2999   5.2999   5.2999   5.3003   5.3003   5.3008   5.3008   5.3008
     5.3018   5.3018   5.3237   5.3237   5.3237   7.3970   7.4868   7.4868
     7.4868   7.4883   7.4896   7.4896   7.4896   7.4899   7.4899   7.4900
     7.4900   7.4900   7.4904   7.4904   7.4904   7.4910   7.4910   7.4910
     7.5329   7.5329   7.5329   7.5398   7.5398   7.9109   7.9782   7.9822

     occupation numbers 
     1.0000   1.0000   1.0000   1.0000   1.0000   1.0000   1.0000   1.0000
     1.0000   1.0000   1.0000   1.0000   1.0000   1.0000   1.0000   1.0000
     1.0000   1.0000   1.0000   1.0000   1.0000   1.0000   1.0000   1.0000
     1.0000   1.0000   1.0000   1.0000   1.0000   1.0000   1.0000   1.0000
     1.0000   1.0000   1.0000   1.0000   1.0000   1.0000   1.0000   1.0000
     1.0000   1.0000   1.0000   1.0000   1.0000   1.0000   1.0000   1.0000
     1.0000   1.0000   1.0000   1.0000   1.0000   1.0000   1.0000   1.0000
     1.0000   1.0000   1.0000   1.0000   1.0000   1.0000   1.0000   1.0000
     1.0000   1.0000   1.0000   1.0000   1.0000   1.0000   1.0000   1.0000
     1.0000   1.0000   1.0000   1.0000   1.0000   1.0000   1.0000   1.0000
     1.0000   1.0000   1.0000   1.0000   1.0000   1.0000   1.0000   1.0000
     1.0000   1.0000   1.0000   1.0000   1.0000   1.0000   1.0000   1.0000
     1.0000   1.0000   1.0000   1.0000   1.0000   1.0000   1.0000   1.0000
     1.0000   1.0000   1.0000   1.0000   1.0000   1.0000   1.0000   1.0000
     1.0000   1.0000   1.0000   1.0000   1.0000   1.0000   1.0000   1.0000
     1.0000   1.0000   1.0000   1.0000   1.0000   1.0000   1.0000   1.0000
     1.0000   1.0000   1.0000   1.0000   1.0000   0.0000   0.0000   0.0000
     0.0000   0.0000   0.0000   0.0000   0.0000   0.0000   0.0000   0.0000
     0.0000   0.0000   0.0000   0.0000   0.0000   0.0000   0.0000   0.0000
     0.0000   0.0000   0.0000   0.0000   0.0000   0.0000   0.0000   0.0000

     the Fermi energy is     6.4135 ev

!    total energy              =    -813.93566647 Ry
     Harris-Foulkes estimate   =       0.00000000 Ry
     estimated scf accuracy    <          9.5E-11 Ry

     The total energy is the sum of the following terms:

     one-electron contribution =     -42.90139725 Ry
     hartree contribution      =     147.69968177 Ry
     xc contribution           =    -325.42152352 Ry
     ewald contribution        =    -593.31242748 Ry
     band sum                  =       4.99170692 Ry
     deband                    =     -47.89310417 Ry
     smearing contrib. (-TS)   =      -0.00000000 Ry

     convergence has been achieved in  12 iterations

     Forces acting on atoms (cartesian axes, Ry/au):

     atom    1 type  1   force =     0.00000000    0.00000000    0.00000000
     atom    2 type  2   force =     0.00000000    0.00000000    0.00000000
     atom    3 type  2   force =     0.00000000    0.00000000    0.00000000
     atom    4 type  2   force =     0.00000000    0.00000000    0.00000000
     atom    5 type  2   force =     0.00000000    0.00000000    0.00000000
     atom    6 type  2   force =     0.00000000    0.00000000    0.00000000
     atom    7 type  2   force =     0.00000000    0.00000000    0.00000000
     atom    8 type  2   force =     0.00000000    0.00000000    0.00000000
     atom    9 type  2   force =     0.00038720   -0.00009516   -0.00009516
     atom   10 type  2   force =    -0.00038720   -0.00009516    0.00009516
     atom   11 type  2   force =    -0.00038720    0.00009516   -0.00009516
     atom   12 type  2   force =     0.00038720    0.00009516    0.00009516
     atom   13 type  2   force =    -0.00002962    0.00002986    0.00002986
     atom   14 type  2   force =     0.00002962    0.00002986   -0.00002986
     atom   15 type  2   force =     0.00002962   -0.00002986    0.00002986
     atom   16 type  2   force =    -0.00002962   -0.00002986   -0.00002986
     atom   17 type  2   force =    -0.00009516    0.00038720   -0.00009516
     atom   18 type  2   force =    -0.00009516   -0.00038720    0.00009516
     atom   19 type  2   force =     0.00002986   -0.00002962    0.00002986
     atom   20 type  2   force =     0.00002986    0.00002962   -0.00002986
     atom   21 type  2   force =     0.00009516   -0.00038720   -0.00009516
     atom   22 type  2   force =     0.00009516    0.00038720    0.00009516
     atom   23 type  2   force =    -0.00002986    0.00002962    0.00002986
     atom   24 type  2   force =    -0.00002986   -0.00002962   -0.00002986
     atom   25 type  2   force =    -0.00009516   -0.00009516    0.00038720
     atom   26 type  2   force =     0.00002986    0.00002986   -0.00002962
     atom   27 type  2   force =    -0.00009516    0.00009516   -0.00038720
     atom   28 type  2   force =     0.00002986   -0.00002986    0.00002962
     atom   29 type  2   force =     0.00009516   -0.00009516   -0.00038720
     atom   30 type  2   force =    -0.00002986    0.00002986    0.00002962
     atom   31 type  2   force =     0.00009516    0.00009516    0.00038720
     atom   32 type  2   force =    -0.00002986   -0.00002986   -0.00002962
     atom   33 type  2   force =     0.00002287    0.00002287   -0.00000871
     atom   34 type  2   force =    -0.00002069   -0.00002069    0.00002069
     atom   35 type  2   force =    -0.00000178    0.00001492   -0.00001492
     atom   36 type  2   force =     0.00002287    0.00000871   -0.00002287
     atom   37 type  2   force =     0.00001492   -0.00000178   -0.00001492
     atom   38 type  2   force =     0.00000871    0.00002287   -0.00002287
     atom   39 type  2   force =    -0.00886573   -0.00886573    0.00886573
     atom   40 type  2   force =     0.00001492    0.00001492    0.00000178
     atom   41 type  2   force =     0.00002287   -0.00000871    0.00002287
     atom   42 type  2   force =    -0.00000178   -0.00001492    0.00001492
     atom   43 type  2   force =    -0.00002069    0.00002069   -0.00002069
     atom   44 type  2   force =     0.00002287   -0.00002287    0.00000871
     atom   45 type  2   force =     0.00001492   -0.00001492   -0.00000178
     atom   46 type  2   force =    -0.00886573    0.00886573   -0.00886573
     atom   47 type  2   force =     0.00000871   -0.00002287    0.00002287
     atom   48 type  2   force =     0.00001492    0.00000178    0.00001492
     atom   49 type  2   force =    -0.00000871    0.00002287    0.00002287
     atom   50 type  2   force =    -0.00001492   -0.00000178    0.00001492
     atom   51 type  2   force =    -0.00001492    0.00001492   -0.00000178
     atom   52 type  2   force =     0.00886573   -0.00886573   -0.00886573
     atom   53 type  2   force =     0.00002069   -0.00002069   -0.00002069
     atom   54 type  2   force =    -0.00002287    0.00002287    0.00000871
     atom   55 type  2   force =    -0.00002287    0.00000871    0.00002287
     atom   56 type  2   force =     0.00000178    0.00001492    0.00001492
     atom   57 type  2   force =     0.00886573    0.00886573    0.00886573
     atom   58 type  2   force =    -0.00001492   -0.00001492    0.00000178
     atom   59 type  2   force =    -0.00001492    0.00000178   -0.00001492
     atom   60 type  2   force =    -0.00000871   -0.00002287   -0.00002287
     atom   61 type  2   force =     0.00000178   -0.00001492   -0.00001492
     atom   62 type  2   force =    -0.00002287   -0.00000871   -0.00002287
     atom   63 type  2   force =    -0.00002287   -0.00002287   -0.00000871
     atom   64 type  2   force =     0.00002069    0.00002069    0.00002069
     The non-local contrib.  to forces
     atom    1 type  1   force =     0.00000000    0.00000000    0.00000000
     atom    2 type  2   force =     0.00000000    0.00000000    0.00000000
     atom    3 type  2   force =     0.00000000    0.00000000    0.00000000
     atom    4 type  2   force =     0.00000000    0.00000000    0.00000000
     atom    5 type  2   force =     0.00000000    0.00000000    0.00000000
     atom    6 type  2   force =     0.00000000    0.00000000    0.00000000
     atom    7 type  2   force =     0.00000000    0.00000000    0.00000000
     atom    8 type  2   force =     0.00000000    0.00000000    0.00000000
     atom    9 type  2   force =    -0.00061635    0.00090281    0.00090281
     atom   10 type  2   force =     0.00061635    0.00090281   -0.00090281
     atom   11 type  2   force =     0.00061635   -0.00090281    0.00090281
     atom   12 type  2   force =    -0.00061635   -0.00090281   -0.00090281
     atom   13 type  2   force =     0.00007975   -0.00005707   -0.00005707
     atom   14 type  2   force =    -0.00007975   -0.00005707    0.00005707
     atom   15 type  2   force =    -0.00007975    0.00005707   -0.00005707
     atom   16 type  2   force =     0.00007975    0.00005707    0.00005707
     atom   17 type  2   force =     0.00090281   -0.00061635    0.00090281
     atom   18 type  2   force =     0.00090281    0.00061635   -0.00090281
     atom   19 type  2   force =    -0.00005707    0.00007975   -0.00005707
     atom   20 type  2   force =    -0.00005707   -0.00007975    0.00005707
     atom   21 type  2   force =    -0.00090281    0.00061635    0.00090281
     atom   22 type  2   force =    -0.00090281   -0.00061635   -0.00090281
     atom   23 type  2   force =     0.00005707   -0.00007975   -0.00005707
     atom   24 type  2   force =     0.00005707    0.00007975    0.00005707
     atom   25 type  2   force =     0.00090281    0.00090281   -0.00061635
     atom   26 type  2   force =    -0.00005707   -0.00005707    0.00007975
     atom   27 type  2   force =     0.00090281   -0.00090281    0.00061635
     atom   28 type  2   force =    -0.00005707    0.00005707   -0.00007975
     atom   29 type  2   force =    -0.00090281    0.00090281    0.00061635
     atom   30 type  2   force =     0.00005707   -0.00005707   -0.00007975
     atom   31 type  2   force =    -0.00090281   -0.00090281   -0.00061635
     atom   32 type  2   force =     0.00005707    0.00005707    0.00007975
     atom   33 type  2   force =     0.00006492    0.00006492    0.00012855
     atom   34 type  2   force =     0.00002040    0.00002040   -0.00002040
     atom   35 type  2   force =    -0.00015949    0.00004697   -0.00004697
     atom   36 type  2   force =     0.00006492   -0.00012855   -0.00006492
     atom   37 type  2   force =     0.00004697   -0.00015949   -0.00004697
     atom   38 type  2   force =    -0.00012855    0.00006492   -0.00006492
     atom   39 type  2   force =     0.00476234    0.00476234   -0.00476234
     atom   40 type  2   force =     0.00004697    0.00004697    0.00015949
     atom   41 type  2   force =     0.00006492    0.00012855    0.00006492
     atom   42 type  2   force =    -0.00015949   -0.00004697    0.00004697
     atom   43 type  2   force =     0.00002040   -0.00002040    0.00002040
     atom   44 type  2   force =     0.00006492   -0.00006492   -0.00012855
     atom   45 type  2   force =     0.00004697   -0.00004697   -0.00015949
     atom   46 type  2   force =     0.00476234   -0.00476234    0.00476234
     atom   47 type  2   force =    -0.00012855   -0.00006492    0.00006492
     atom   48 type  2   force =     0.00004697    0.00015949    0.00004697
     atom   49 type  2   force =     0.00012855    0.00006492    0.00006492
     atom   50 type  2   force =    -0.00004697   -0.00015949    0.00004697
     atom   51 type  2   force =    -0.00004697    0.00004697   -0.00015949
     atom   52 type  2   force =    -0.00476234    0.00476234    0.00476234
     atom   53 type  2   force =    -0.00002040    0.00002040    0.00002040
     atom   54 type  2   force =    -0.00006492    0.00006492   -0.00012855
     atom   55 type  2   force =    -0.00006492   -0.00012855    0.00006492
     atom   56 type  2   force =     0.00015949    0.00004697    0.00004697
     atom   57 type  2   force =    -0.00476234   -0.00476234   -0.00476234
     atom   58 type  2   force =    -0.00004697   -0.00004697    0.00015949
     atom   59 type  2   force =    -0.00004697    0.00015949   -0.00004697
     atom   60 type  2   force =     0.00012855   -0.00006492   -0.00006492
     atom   61 type  2   force =     0.00015949   -0.00004697   -0.00004697
     atom   62 type  2   force =    -0.00006492    0.00012855   -0.00006492
     atom   63 type  2   force =    -0.00006492   -0.00006492    0.00012855
     atom   64 type  2   force =    -0.00002040   -0.00002040   -0.00002040
     The ionic contribution  to forces
     atom    1 type  1   force =    -0.00000000   -0.00000000   -0.00000000
     atom    2 type  2   force =    -0.00000000   -0.00000000    0.00000000
     atom    3 type  2   force =    -0.00000000    0.00000000   -0.00000000
     atom    4 type  2   force =    -0.00000000    0.00000000    0.00000000
     atom    5 type  2   force =     0.00000000   -0.00000000   -0.00000000
     atom    6 type  2   force =     0.00000000   -0.00000000    0.00000000
     atom    7 type  2   force =     0.00000000    0.00000000   -0.00000000
     atom    8 type  2   force =     0.00000000    0.00000000    0.00000000
     atom    9 type  2   force =    -0.00000000    0.89661064    0.89661064
     atom   10 type  2   force =    -0.00000000    0.89661064   -0.89661064
     atom   11 type  2   force =    -0.00000000   -0.89661064    0.89661064
     atom   12 type  2   force =    -0.00000000   -0.89661064   -0.89661064
     atom   13 type  2   force =     0.00000000    0.20254944    0.20254944
     atom   14 type  2   force =     0.00000000    0.20254944   -0.20254944
     atom   15 type  2   force =     0.00000000   -0.20254944    0.20254944
     atom   16 type  2   force =     0.00000000   -0.20254944   -0.20254944
     atom   17 type  2   force =     0.89661064   -0.00000000    0.89661064
     atom   18 type  2   force =     0.89661064   -0.00000000   -0.89661064
     atom   19 type  2   force =     0.20254944    0.00000000    0.20254944
     atom   20 type  2   force =     0.20254944    0.00000000   -0.20254944
     atom   21 type  2   force =    -0.89661064   -0.00000000    0.89661064
     atom   22 type  2   force =    -0.89661064   -0.00000000   -0.89661064
     atom   23 type  2   force =    -0.20254944    0.00000000    0.20254944
     atom   24 type  2   force =    -0.20254944    0.00000000   -0.20254944
     atom   25 type  2   force =     0.89661064    0.89661064   -0.00000000
     atom   26 type  2   force =     0.20254944    0.20254944    0.00000000
     atom   27 type  2   force =     0.89661064   -0.89661064   -0.00000000
     atom   28 type  2   force =     0.20254944   -0.20254944    0.00000000
     atom   29 type  2   force =    -0.89661064    0.89661064   -0.00000000
     atom   30 type  2   force =    -0.20254944    0.20254944    0.00000000
     atom   31 type  2   force =    -0.89661064   -0.89661064   -0.00000000
     atom   32 type  2   force =    -0.20254944   -0.20254944    0.00000000
     atom   33 type  2   force =     0.22458576    0.22458576    0.13399331
     atom   34 type  2   force =     0.12062650    0.12062650   -0.12062650
     atom   35 type  2   force =     0.62186047   -0.30044020    0.30044020
     atom   36 type  2   force =     0.22458576   -0.13399331   -0.22458576
     atom   37 type  2   force =    -0.30044020    0.62186047    0.30044020
     atom   38 type  2   force =    -0.13399331    0.22458576   -0.22458576
     atom   39 type  2   force =    -2.24839435   -2.24839435    2.24839435
     atom   40 type  2   force =    -0.30044020   -0.30044020   -0.62186047
     atom   41 type  2   force =     0.22458576    0.13399331    0.22458576
     atom   42 type  2   force =     0.62186047    0.30044020   -0.30044020
     atom   43 type  2   force =     0.12062650   -0.12062650    0.12062650
     atom   44 type  2   force =     0.22458576   -0.22458576   -0.13399331
     atom   45 type  2   force =    -0.30044020    0.30044020    0.62186047
     atom   46 type  2   force =    -2.24839435    2.24839435   -2.24839435
     atom   47 type  2   force =    -0.13399331   -0.22458576    0.22458576
     atom   48 type  2   force =    -0.30044020   -0.62186047   -0.30044020
     atom   49 type  2   force =     0.13399331    0.22458576    0.22458576
     atom   50 type  2   force =     0.30044020    0.62186047   -0.30044020
     atom   51 type  2   force =     0.30044020   -0.30044020    0.62186047
     atom   52 type  2   force =     2.24839435   -2.24839435   -2.24839435
     atom   53 type  2   force =    -0.12062650    0.12062650    0.12062650
     atom   54 type  2   force =    -0.22458576    0.22458576   -0.13399331
     atom   55 type  2   force =    -0.22458576   -0.13399331    0.22458576
     atom   56 type  2   force =    -0.62186047   -0.30044020   -0.30044020
     atom   57 type  2   force =     2.24839435    2.24839435    2.24839435
     atom   58 type  2   force =     0.30044020    0.30044020   -0.62186047
     atom   59 type  2   force =     0.30044020   -0.62186047    0.30044020
     atom   60 type  2   force =     0.13399331   -0.22458576   -0.22458576
     atom   61 type  2   force =    -0.62186047    0.30044020    0.30044020
     atom   62 type  2   force =    -0.22458576    0.13399331   -0.22458576
     atom   63 type  2   force =    -0.22458576   -0.22458576    0.13399331
     atom   64 type  2   force =    -0.12062650   -0.12062650   -0.12062650
     The local contribution  to forces
     atom    1 type  1   force =    -0.00000000   -0.00000000    0.00000000
     atom    2 type  2   force =    -0.00000000    0.00000000   -0.00000000
     atom    3 type  2   force =    -0.00000000   -0.00000000   -0.00000000
     atom    4 type  2   force =    -0.00000000    0.00000000    0.00000000
     atom    5 type  2   force =    -0.00000000    0.00000000   -0.00000000
     atom    6 type  2   force =     0.00000000   -0.00000000    0.00000000
     atom    7 type  2   force =     0.00000000    0.00000000    0.00000000
     atom    8 type  2   force =     0.00000000    0.00000000    0.00000000
     atom    9 type  2   force =     0.00095019   -0.89752670   -0.89752670
     atom   10 type  2   force =    -0.00095019   -0.89752670    0.89752670
     atom   11 type  2   force =    -0.00095019    0.89752670   -0.89752670
     atom   12 type  2   force =     0.00095019    0.89752670    0.89752670
     atom   13 type  2   force =    -0.00010129   -0.20246648   -0.20246648
     atom   14 type  2   force =     0.00010129   -0.20246648    0.20246648
     atom   15 type  2   force =     0.00010129    0.20246648   -0.20246648
     atom   16 type  2   force =    -0.00010129    0.20246648    0.20246648
     atom   17 type  2   force =    -0.89752670    0.00095019   -0.89752670
[...]
sirius::Beta_projectors_base::generate                            :    664    24.0462     0.0291     0.0697     0.0362     100.00
sirius::Beta_projectors_base::inner                               :    664    25.9112     0.0035     0.1150     0.0390     100.00
sirius::Beta_projectors_strain_deriv::generate_pw_coefs_t         :      7     0.1453     0.0204     0.0221     0.0208     100.00
sirius::DFT_ground_state::ewald_energy                            :      7     0.0385     0.0029     0.0159     0.0055     100.00
sirius::Density::add_k_point_contribution_dm                      :     98     8.4904     0.0825     0.1024     0.0866       0.34
sirius::Density::add_k_point_contribution_rg                      :     98     7.5955     0.0661     0.0842     0.0775      29.82
sirius::Density::augment                                          :     98     1.0920     0.0091     0.0125     0.0111       0.27
sirius::Density::generate_pseudo_core_charge_density              :      7     0.6213     0.0702     0.1012     0.0888       0.07
sirius::Density::generate_rho_aug                                 :     98     1.0891     0.0091     0.0125     0.0111       1.45
sirius::Density::generate_rho_aug|gemm                            :    196     0.3553     0.0006     0.0034     0.0018     100.00
sirius::Density::generate_rho_aug|phase_fac                       :    196     0.2037     0.0000     0.0025     0.0010     100.00
sirius::Density::generate_rho_aug|sum                             :    196     0.5144     0.0016     0.0033     0.0026     100.00
sirius::Density::generate_valence                                 :     98    23.0565     0.2256     0.2670     0.2353      10.64
sirius::Density::initial_density                                  :      7     0.5600     0.0649     0.0993     0.0800       3.16
sirius::Forces_PS::calc_ewald_forces                              :      7     0.0462     0.0051     0.0101     0.0066     100.00
sirius::Forces_PS::calc_local_forces                              :      7     1.5563     0.2135     0.2711     0.2223       6.59
sirius::Forces_PS::calc_nlcc_force                                :      7     0.3823     0.0539     0.0553     0.0546      11.83
sirius::Forces_PS::calc_nonlocal_forces                           :      7     2.6391     0.3738     0.3805     0.3770       6.57
sirius::Forces_PS::calc_scf_corr_forces                           :      7     0.2787     0.0395     0.0409     0.0398       7.85
sirius::Forces_PS::calc_ultrasoft_forces                          :      7     0.2198     0.0302     0.0365     0.0314      68.51
sirius::K_point::generate_gkvec                                   :      7     0.1289     0.0061     0.0303     0.0184      67.43
sirius::K_point::initialize                                       :      7     0.1693     0.0113     0.0397     0.0242       2.78
sirius::Local_operator::apply_h                                   :    468    46.7218     0.0064     0.3691     0.0998      15.40
sirius::Local_operator::prepare                                   :    210     2.9695     0.0012     0.0996     0.0141      32.75
sirius::Non_local_operator::apply                                 :    936    30.3239     0.0022     0.0923     0.0324     100.00
sirius::Periodic_function::inner                                  :    329     0.4057     0.0004     0.0041     0.0012      58.65
sirius::Potential::Potential                                      :      7     1.8607     0.2413     0.2934     0.2658       2.25
sirius::Potential::generate_D_operator_matrix                     :    105     0.7987     0.0060     0.0322     0.0076     100.00
sirius::Potential::generate_local_potential                       :      7     1.8188     0.2319     0.2902     0.2598       0.04
sirius::Radial_integrals|aug                                      :     14     0.4388     0.0216     0.0481     0.0313     100.00
sirius::Radial_integrals|beta                                     :     14     2.5570     0.1756     0.1908     0.1826     100.00
sirius::Radial_integrals|rho_core_pseudo                          :     49     1.9575     0.0376     0.0432     0.0399     100.00
sirius::Radial_integrals|rho_pseudo                               :     14     0.5145     0.0366     0.0371     0.0367     100.00
sirius::Radial_integrals|vloc                                     :     28     6.1436     0.2072     0.2549     0.2194     100.00
sirius::Simulation_context::initialize                            :      7     5.4234     0.7579     0.8342     0.7748       0.00
sirius::Simulation_context_base::initialize                       :      7     3.8790     0.5361     0.6153     0.5541       6.17
sirius::Simulation_context_base::make_periodic_function           :     42     0.1335     0.0022     0.0043     0.0032     100.00
sirius::Smooth_periodic_function::fft_transform                   :    483     6.8316     0.0053     0.0782     0.0141      41.40
sirius::Smooth_periodic_function::gather_f_pw                     :    322     3.6341     0.0042     0.0882     0.0113     100.00
sirius::Stress|ewald                                              :      7     0.0500     0.0067     0.0073     0.0071     100.00
sirius::Stress|kin                                                :      7     0.0631     0.0082     0.0099     0.0090     100.00
sirius::Stress|nonloc                                             :      7     6.2138     0.8816     0.8949     0.8877       6.49
sirius::Stress|us                                                 :      7     2.4131     0.3304     0.3578     0.3447      14.70
sirius::Stress|us|gemm                                            :    126     0.1471     0.0002     0.0022     0.0012     100.00
sirius::Stress|us|prepare                                         :    126     0.0380     0.0001     0.0008     0.0003     100.00
sirius::Stress|vloc                                               :      7     3.3067     0.4715     0.4734     0.4724       0.52
sirius::Unit_cell::find_nearest_neighbours                        :      7     0.0228     0.0031     0.0035     0.0033     100.00
sirius::Unit_cell::initialize                                     :      7     0.0444     0.0055     0.0104     0.0063       1.44
sirius_api::sirius_get_pw_coeffs                                  :    119     1.7504     0.0103     0.0238     0.0147      17.28
sirius_api::sirius_set_pw_coeffs                                  :    231     5.9734     0.0084     0.0738     0.0259      40.63
--------------------------------------------------------------------------------------------------------------------------------------------
+global_timer (  284.3894s, 0.00 % of self, 100.00 % of total)
|--qe|run_pwscf (  284.3882s, 100.00 %) 
qe|electrons (  254.5310s, 0.00 % of self, 89.50 % of total)
|--qe|electrons|scf (  243.0855s, 95.50 %) 
|--qe|electrons|init (   11.2395s, 4.42 %) 
|--sirius_api::sirius_set_pw_coeffs (    0.2058s, 0.08 %) 
qe|electrons|init (   11.2395s, 2.63 % of self, 3.95 % of total)
|--sirius::Band::initialize_subspace (    6.6026s, 58.74 %) 
|--sirius::Potential::Potential (    1.8607s, 16.56 %) 
|--sirius_api::sirius_set_pw_coeffs (    0.7005s, 6.23 %) 
|--sirius::Density::generate_pseudo_core_charge_density (    0.6213s, 5.53 %) 
|--sirius::Density::initial_density (    0.5600s, 4.98 %) 
|--sirius_api::sirius_get_pw_coeffs (    0.3724s, 3.31 %) 
|--sirius::Potential::generate_D_operator_matrix (    0.0845s, 0.75 %) 
|--qe|v_ha (    0.0632s, 0.56 %) 
|--qe|v_xc (    0.0402s, 0.36 %) 
|--sirius::DFT_ground_state::ewald_energy (    0.0385s, 0.34 %) 
|--sirius::Band::Band (    0.0000s, 0.00 %) 
qe|electrons|scf (  243.0855s, 0.87 % of self, 85.48 % of total)
|--sirius::Band::solve_for_kset (  203.2992s, 83.63 %) 
|--sirius::Density::generate_valence (   23.0565s, 9.48 %) 
|--qe|veff (    8.2532s, 3.40 %) 
|--qe|mix (    3.4234s, 1.41 %) 
|--sirius_api::sirius_get_pw_coeffs (    1.3780s, 0.57 %) 
|--sirius::Smooth_periodic_function::fft_transform (    1.3357s, 0.55 %) 
|--sirius::Periodic_function::inner (    0.2195s, 0.09 %) 
qe|run_pwscf (  284.3882s, 0.20 % of self, 100.00 % of total)
|--qe|run_pwscf|electrons (  254.5311s, 89.50 %) 
|--qe|run_pwscf|stress (   13.8179s, 4.86 %) 
|--qe|run_pwscf|setup_sirius (    5.6262s, 1.98 %) 
|--qe|run_pwscf|forces (    5.4851s, 1.93 %) 
|--qe|run_pwscf|init_run (    3.1920s, 1.12 %) 
|--qe|run_pwscf|ions (    1.0441s, 0.37 %) 
|--qe|run_pwscf|hinit1 (    0.1036s, 0.04 %) 
|--qe|run_pwscf|setup (    0.0316s, 0.01 %) 
|--qe|run_pwscf|punch (    0.0000s, 0.00 %) 
qe|run_pwscf|electrons (  254.5311s, 0.00 % of self, 89.50 % of total)
|--qe|electrons (  254.5310s, 100.00 %) 
qe|run_pwscf|forces (    5.4851s, 2.76 % of self, 1.93 % of total)
|--sirius::Forces_PS::calc_nonlocal_forces (    2.6391s, 48.11 %) 
|--sirius::Forces_PS::calc_local_forces (    1.5563s, 28.37 %) 
|--sirius::Forces_PS::calc_nlcc_force (    0.3823s, 6.97 %) 
|--sirius::Forces_PS::calc_scf_corr_forces (    0.2787s, 5.08 %) 
|--sirius::Forces_PS::calc_ultrasoft_forces (    0.2198s, 4.01 %) 
|--sirius_api::sirius_set_pw_coeffs (    0.2114s, 3.85 %) 
|--sirius::Forces_PS::calc_ewald_forces (    0.0462s, 0.84 %) 
qe|run_pwscf|init_run (    3.1920s, 51.43 % of self, 1.12 % of total)
|--qe|init_run|hinit0 (    1.5503s, 48.57 %) 
|--qe|init_run|potinit (    0.0000s, 0.00 %) 
|--qe|init_run|newd (    0.0000s, 0.00 %) 
qe|run_pwscf|setup_sirius (    5.6262s, 0.59 % of self, 1.98 % of total)
|--sirius::Simulation_context::initialize (    5.4234s, 96.40 %) 
|--sirius::K_point::initialize (    0.1693s, 3.01 %) 
|--sirius::K_point_set::add_kpoints (    0.0004s, 0.01 %) 
|--sirius::K_point_set::K_point_set (    0.0000s, 0.00 %) 
qe|run_pwscf|stress (   13.8179s, 0.09 % of self, 4.86 % of total)
|--sirius::Stress|nonloc (    6.2138s, 44.97 %) 
|--sirius::Stress|vloc (    3.3067s, 23.93 %) 
|--sirius::Stress|us (    2.4131s, 17.46 %) 
|--qe|stress_xc (    1.3581s, 9.83 %) 
|--sirius::Radial_integrals|rho_core_pseudo (    0.3003s, 2.17 %) 
|--sirius::Stress|kin (    0.0631s, 0.46 %) 
|--sirius::Smooth_periodic_function::fft_transform (    0.0628s, 0.45 %) 
|--sirius::Stress|ewald (    0.0500s, 0.36 %) 
|--sirius::Periodic_function::inner (    0.0184s, 0.13 %) 
|--sirius::Simulation_context_base::make_periodic_function (    0.0163s, 0.12 %) 
|--sirius::Stress|har (    0.0022s, 0.02 %) 
qe|veff (    8.2532s, 16.53 % of self, 2.90 % of total)
|--sirius_api::sirius_set_pw_coeffs (    4.8557s, 58.83 %) 
|--qe|v_ha (    0.7847s, 9.51 %) 
|--sirius::Potential::generate_D_operator_matrix (    0.7141s, 8.65 %) 
|--qe|v_xc (    0.5346s, 6.48 %) 
sddk::FFT3D::transform (   41.0761s, 0.33 % of self, 14.44 % of total)
|--sddk::FFT3D::transform_xy (   34.0656s, 82.93 %) 
|--sddk::FFT3D::transform_z (    6.8736s, 16.73 %) 
sddk::FFT3D::transform_z (    6.8736s, 0.65 % of self, 2.42 % of total)
|--sddk::FFT3D::transform_z_serial (    4.4695s, 65.02 %) 
|--sddk::FFT3D::transform_z|comm (    2.3597s, 34.33 %) 
sddk::wave_functions::orthogonalize (   19.7924s, 4.23 % of self, 6.96 % of total)
|--sddk::wave_functions::transform (   12.4880s, 63.10 %) 
|--sddk::wave_functions::inner (    6.0385s, 30.51 %) 
|--sddk::wave_functions::orthogonalize|potrf (    0.2790s, 1.41 %) 
|--sddk::wave_functions::orthogonalize|trtri (    0.1501s, 0.76 %) 
sddk::wave_functions::transform (   22.7970s, 93.90 % of self, 8.02 % of total)
|--sddk::wave_functions::transform|init (    1.3916s, 6.10 %) 
sirius::Band::apply_h_o (  111.0519s, 0.58 % of self, 39.05 % of total)
|--sirius::Local_operator::apply_h (   46.7218s, 42.07 %) 
|--sirius::Non_local_operator::apply (   30.3239s, 27.31 %) 
|--sirius::Beta_projectors_base::generate (   17.2423s, 15.53 %) 
|--sirius::Beta_projectors_base::inner (   16.1230s, 14.52 %) 
sirius::Band::diag_pseudo_potential (  167.0555s, 0.06 % of self, 58.74 % of total)
|--sirius::Band::diag_pseudo_potential_davidson (  166.8040s, 99.85 %) 
|--sirius::Local_operator::prepare (    0.1373s, 0.08 %) 
|--sddk::FFT3D::prepare (    0.0065s, 0.00 %) 
|--sirius::Non_local_operator::Non_local_operator (    0.0004s, 0.00 %) 
sirius::Band::diag_pseudo_potential_davidson (  166.8040s, 0.06 % of self, 58.65 % of total)
|--sirius::Band::diag_pseudo_potential_davidson|iter (  165.4440s, 99.18 %) 
|--sirius::Band::get_h_diag (    0.6119s, 0.37 %) 
|--sirius::Band::get_o_diag (    0.5853s, 0.35 %) 
|--sirius::Band::diag_pseudo_potential_davidson|alloc (    0.0594s, 0.04 %) 
|--sirius::Band::diag_pseudo_potential_davidson|wf (    0.0020s, 0.00 %) 
|--sirius::Beta_projectors_base::dismiss (    0.0000s, 0.00 %) 
sirius::Band::diag_pseudo_potential_davidson|evp (   21.0505s, 0.13 % of self, 7.40 % of total)
|--Eigenproblem_elpa1|diag (   20.3830s, 96.83 %) 
|--Eigenproblem_elpa:transform_to_standard (    0.5116s, 2.43 %) 
|--Eigenproblem_elpa:transform_back (    0.1286s, 0.61 %) 
sirius::Band::diag_pseudo_potential_davidson|iter (  165.4440s, 0.34 % of self, 58.18 % of total)
|--sirius::Band::apply_h_o (  106.5393s, 64.40 %) 
|--sirius::Band::diag_pseudo_potential_davidson|evp (   21.0505s, 12.72 %) 
|--sddk::wave_functions::orthogonalize (   19.7924s, 11.96 %) 
|--sirius::Band::residuals (    7.7467s, 4.68 %) 
|--sirius::Band::set_subspace_mtrx (    6.2287s, 3.76 %) 
|--sirius::Band::diag_pseudo_potential_davidson|update_phi (    3.5208s, 2.13 %) 
sirius::Band::diag_pseudo_potential_davidson|update_phi (    3.5208s, 1.61 % of self, 1.24 % of total)
|--sddk::wave_functions::transform (    3.4640s, 98.39 %) 
sirius::Band::initialize_subspace (    6.6026s, 7.92 % of self, 2.32 % of total)
|--sirius::Band::initialize_subspace|kp (    5.8546s, 88.67 %) 
|--sirius::Local_operator::prepare (    0.2253s, 3.41 %) 
sirius::Band::initialize_subspace|kp (    5.8546s, 0.92 % of self, 2.06 % of total)
|--sirius::Band::apply_h_o (    4.5126s, 77.08 %) 
|--sirius::Band::set_subspace_mtrx (    0.4120s, 7.04 %) 
|--Eigenproblem_elpa1|diag (    0.2494s, 4.26 %) 
|--Eigenproblem_elpa:transform_to_standard (    0.2226s, 3.80 %) 
|--sddk::matrix_storage::matrix_storage (    0.1554s, 2.65 %) 
|--sddk::wave_functions::transform (    0.1228s, 2.10 %) 
|--sirius::Band::initialize_subspace|kp|wf (    0.0976s, 1.67 %) 
|--Eigenproblem_elpa:transform_back (    0.0178s, 0.30 %) 
|--sirius::Local_operator::prepare (    0.0107s, 0.18 %) 
|--sddk::FFT3D::prepare (    0.0001s, 0.00 %) 
|--sirius::Non_local_operator::Non_local_operator (    0.0000s, 0.00 %) 
|--sirius::Beta_projectors_base::prepare (    0.0000s, 0.00 %) 
|--sirius::Beta_projectors_base::dismiss (    0.0000s, 0.00 %) 
sirius::Band::residuals (    7.7467s, 1.11 % of self, 2.72 % of total)
|--sddk::wave_functions::transform (    6.7222s, 86.77 %) 
|--sirius::Band::residuals_aux (    0.9382s, 12.11 %) 
sirius::Band::set_subspace_mtrx (    6.6407s, 0.60 % of self, 2.34 % of total)
|--sddk::wave_functions::inner (    6.6010s, 99.40 %) 
sirius::Band::solve_for_kset (  203.2992s, 16.55 % of self, 71.49 % of total)
|--sirius::Band::diag_pseudo_potential (  167.0555s, 82.17 %) 
|--sirius::Local_operator::prepare (    2.5962s, 1.28 %) 
|--sirius::K_point_set::sync_band_energies (    0.0048s, 0.00 %) 
sirius::Density::add_k_point_contribution_dm (    8.4904s, 0.34 % of self, 2.99 % of total)
|--sirius::Beta_projectors_base::inner (    5.1418s, 60.56 %) 
|--sirius::Beta_projectors_base::generate (    3.3197s, 39.10 %) 
|--sirius::Beta_projectors_base::prepare (    0.0001s, 0.00 %) 
|--sirius::Beta_projectors_base::dismiss (    0.0000s, 0.00 %) 
sirius::Density::add_k_point_contribution_rg (    7.5955s, 29.82 % of self, 2.67 % of total)
|--sddk::FFT3D::transform (    5.3293s, 70.16 %) 
|--sddk::FFT3D::prepare (    0.0015s, 0.02 %) 
sirius::Density::generate_valence (   23.0565s, 10.64 % of self, 8.11 % of total)
|--sirius::Density::add_k_point_contribution_dm (    8.4904s, 36.82 %) 
|--sirius::Density::add_k_point_contribution_rg (    7.5955s, 32.94 %) 
|--sddk::matrix_storage::remap_forward (    2.1367s, 9.27 %) 
|--sirius::Density::augment (    1.0920s, 4.74 %) 
|--sirius::Smooth_periodic_function::fft_transform (    0.6622s, 2.87 %) 
|--sirius::Smooth_periodic_function::gather_f_pw (    0.6188s, 2.68 %) 
|--sddk::FFT3D::prepare (    0.0077s, 0.03 %) 
sirius::Local_operator::apply_h (   46.7218s, 15.40 % of self, 16.43 % of total)
|--sddk::FFT3D::transform (   31.3163s, 67.03 %) 
|--sddk::matrix_storage::remap_forward (    4.2474s, 9.09 %) 
|--sddk::matrix_storage::remap_backward (    3.9622s, 8.48 %) 
sirius::Local_operator::prepare (    2.9695s, 32.75 % of self, 1.04 % of total)
|--sirius::Smooth_periodic_function::gather_f_pw (    1.5673s, 52.78 %) 
|--sddk::FFT3D::transform (    0.4271s, 14.38 %) 
|--sddk::FFT3D::prepare (    0.0027s, 0.09 %) 
sirius::Simulation_context::initialize (    5.4234s, 0.00 % of self, 1.91 % of total)
|--sirius::Simulation_context_base::initialize (    3.8790s, 71.52 %) 
|--sirius::Augmentation_operator::generate_pw_coeffs (    1.5441s, 28.47 %) 
sirius::Simulation_context_base::initialize (    3.8790s, 6.17 % of self, 1.36 % of total)
|--sirius::Radial_integrals|beta (    2.5570s, 65.92 %) 
|--sddk::Gvec::init (    0.6508s, 16.78 %) 
|--sirius::Radial_integrals|aug (    0.2542s, 6.55 %) 
|--sddk::remap_gvec_to_shells|init (    0.0952s, 2.45 %) 
|--sirius::Unit_cell::initialize (    0.0444s, 1.14 %) 
|--sddk::FFT3D::FFT3D (    0.0377s, 0.97 %) 
|--sddk::FFT3D::prepare (    0.0005s, 0.01 %) 
sirius::Smooth_periodic_function::fft_transform (    6.8316s, 41.40 % of self, 2.40 % of total)
|--sddk::FFT3D::transform (    4.0033s, 58.60 %) 
sirius::Stress|nonloc (    6.2138s, 6.49 % of self, 2.18 % of total)
|--sirius::Beta_projectors_base::inner (    3.2743s, 52.69 %) 
|--sirius::Beta_projectors_base::generate (    2.3907s, 38.47 %) 
|--sirius::Beta_projectors_strain_deriv::generate_pw_coefs_t (    0.1453s, 2.34 %) 
|--sirius::Beta_projectors_base::dismiss (    0.0000s, 0.00 %) 
|--sirius::Beta_projectors_base::prepare (    0.0000s, 0.00 %) 
sirius::Stress|vloc (    3.3067s, 0.52 % of self, 1.16 % of total)
|--sirius::Radial_integrals|vloc (    3.2333s, 97.78 %) 
|--sirius::Simulation_context_base::make_periodic_function (    0.0562s, 1.70 %) 
sirius_api::sirius_set_pw_coeffs (    5.9734s, 40.63 % of self, 2.10 % of total)
|--sirius::Smooth_periodic_function::fft_transform (    3.5467s, 59.37 %) 

     init_run     :      8.61s CPU      3.60s WALL (       8 calls)
     forces       :     16.68s CPU      5.49s WALL (       7 calls)
     stress       :     41.92s CPU     13.82s WALL (       7 calls)

     Called by init_run:

     Called by electrons:
     v_of_rho     :      5.17s CPU      1.42s WALL (     105 calls)
     v_h          :      2.91s CPU      0.85s WALL (     105 calls)
     v_xc         :      2.42s CPU      0.61s WALL (     119 calls)
     mix_rho      :      5.85s CPU      1.91s WALL (      98 calls)
     sym_rho      :      0.80s CPU      0.83s WALL (      98 calls)

     Called by c_bands:

     Called by sum_band:

     Called by *egterg:

     Called by h_psi:

     General routines
     fft          :     10.27s CPU      3.20s WALL (     647 calls)
     ffts         :      0.05s CPU      0.01s WALL (       5 calls)
     interpolate  :      0.15s CPU      0.04s WALL (       5 calls)

     Parallel routines
     fft_scatter  :      5.19s CPU      1.91s WALL (     652 calls)

     PWSCF        : 13m49.62s CPU     4m44.49s WALL


   This run was terminated on:  11:11:44  25Sep2017            

=------------------------------------------------------------------------------=
   JOB DONE.
=------------------------------------------------------------------------------=
