SIRIUS 6.5.1, git hash: 03934cb413e35367d189966c763df8be178f72e3

     Program PWSCF v.6.5 starts on 10Mar2020 at 15:18: 9 

     This program is part of the open-source Quantum ESPRESSO suite
     for quantum simulation of materials; please cite
         "P. Giannozzi et al., J. Phys.:Condens. Matter 21 395502 (2009);
         "P. Giannozzi et al., J. Phys.:Condens. Matter 29 465901 (2017);
          URL http://www.quantum-espresso.org", 
     in publications or presentations arising from this work. More details at
     http://www.quantum-espresso.org/quote

     Parallel version (MPI & OpenMP), running on     192 processor cores
     Number of MPI processes:                16
     Threads/MPI process:                    12

     MPI processes distributed on    16 nodes
     R & G space division:  proc/nbgrp/npool/nimage =      16
     Reading input from pw.in
     Message from routine read_cards :
     DEPRECATED: no units specified in CELL_PARAMETERS card
Warning: card 1 1 1  0 0 0 ignored

     Current dimensions of program PWSCF are:
     Max number of different atomic species (ntypx) = 10
     Max number of k-points (npk) =  40000
     Max angular momentum in pseudopotentials (lmaxx) =  3
     Message from routine cell_base_init:
     DEPRECATED: use true lattice parameter, not A to a.u. conversion factor

     gamma-point specific algorithms are used

     Subspace diagonalization in iterative solution of the eigenvalue problem:
     one sub-group per band group will be used
     scalapack distributed-memory algorithm (size of sub-group:  4*  4 procs)

     Message from routine setup:
     using ibrav=0 with symmetry is DISCOURAGED, use correct ibrav instead
 
     Parallelization info
     --------------------
     sticks:   dense  smooth     PW     G-vecs:    dense   smooth      PW
     Min        5027    1339    335              1072923   147755   18492
     Max        5030    1344    338              1072928   147760   18498
     Sum       80461   21449   5377             17166821  2364101  295907
 


     bravais-lattice index     =            0
     lattice parameter (alat)  =       1.0000  a.u.
     unit-cell volume          =   69174.1805 (a.u.)^3
     number of atoms/cell      =          512
     number of atomic types    =            2
     number of electrons       =      2058.00
     number of Kohn-Sham states=         1235
     kinetic-energy cutoff     =      40.0000  Ry
     charge density cutoff     =     600.0000  Ry
     convergence threshold     =      1.0E-10
     mixing beta               =       0.7000
     number of iterations used =            8  plain     mixing
     Exchange-correlation= SLA  PZ   NOGX NOGC
                           (   1   1   0   0   0   0   0)

     celldm(1)=   1.000000  celldm(2)=   0.000000  celldm(3)=   0.000000
     celldm(4)=   0.000000  celldm(5)=   0.000000  celldm(6)=   0.000000

     crystal axes: (cart. coord. in units of alat)
               a(1) = (  41.050143   0.000000   0.000000 )  
               a(2) = (   0.000000  41.050143   0.000000 )  
               a(3) = (   0.000000   0.000000  41.050143 )  

     reciprocal axes: (cart. coord. in units 2 pi/alat)
               b(1) = (  0.024360  0.000000  0.000000 )  
               b(2) = (  0.000000  0.024360  0.000000 )  
               b(3) = (  0.000000  0.000000  0.024360 )  


     PseudoPot. # 1 for Ge read from file:
     ./ge_lda_v1.uspp.F.UPF
     MD5 check sum: 575f587c0f86b3eee266efe92ef02c15
     Pseudo is Ultrasoft + core correction, Zval = 14.0
     Generated by new atomic code, or converted to UPF format
     Using radial grid of  873 points,  6 beta functions with: 
                l(1) =   0
                l(2) =   0
                l(3) =   1
                l(4) =   1
                l(5) =   2
                l(6) =   2
     Q(r) pseudized with  8 coefficients,  rinner =    1.400   1.400   1.400
                                                       1.400   1.400

     PseudoPot. # 2 for Si read from file:
     ./si_lda_v1.uspp.F.UPF
     MD5 check sum: ca10e49b2835512e91ee5100d37237e0
     Pseudo is Ultrasoft + core correction, Zval =  4.0
     Generated by new atomic code, or converted to UPF format
     Using radial grid of  899 points,  6 beta functions with: 
                l(1) =   0
                l(2) =   0
                l(3) =   1
                l(4) =   1
                l(5) =   2
                l(6) =   2
     Q(r) pseudized with  8 coefficients,  rinner =    0.900   0.900   0.900
                                                       0.900   0.900

     atomic species   valence    mass     pseudopotential
        Ge            14.00    72.61000     Ge( 1.00)
        Si             4.00    28.08550     Si( 1.00)

     24 Sym. Ops. (no inversion) found



   Cartesian axes

     site n.     atom                  positions (alat units)
         1           Ge  tau(   1) = (   0.0000000   0.0000000   0.0000000  )
         2           Si  tau(   2) = (  20.5250715  20.5250715  20.5250715  )
         3           Si  tau(   3) = (  20.5250715  20.5250715  30.7876073  )
         4           Si  tau(   4) = (  20.5250715  20.5250715   0.0000000  )
         5           Si  tau(   5) = (  20.5250715  20.5250715  10.2625357  )
         6           Si  tau(   6) = (  20.5250715  30.7876073  20.5250715  )
         7           Si  tau(   7) = (  20.5250715  30.7876073  30.7876073  )
         8           Si  tau(   8) = (  20.5250715  30.7876073   0.0000000  )
         9           Si  tau(   9) = (  20.5250715  30.7876073  10.2625357  )
        10           Si  tau(  10) = (  20.5250715   0.0000000  20.5250715  )
        11           Si  tau(  11) = (  20.5250715   0.0000000  30.7876073  )
        12           Si  tau(  12) = (  20.5250715   0.0000000   0.0000000  )
        13           Si  tau(  13) = (  20.5250715   0.0000000  10.2625357  )
        14           Si  tau(  14) = (  20.5250715  10.2625357  20.5250715  )
        15           Si  tau(  15) = (  20.5250715  10.2625357  30.7876073  )
        16           Si  tau(  16) = (  20.5250715  10.2625357   0.0000000  )
        17           Si  tau(  17) = (  20.5250715  10.2625357  10.2625357  )
        18           Si  tau(  18) = (  30.7876073  20.5250715  20.5250715  )
        19           Si  tau(  19) = (  30.7876073  20.5250715  30.7876073  )
        20           Si  tau(  20) = (  30.7876073  20.5250715   0.0000000  )
        21           Si  tau(  21) = (  30.7876073  20.5250715  10.2625357  )
        22           Si  tau(  22) = (  30.7876073  30.7876073  20.5250715  )
        23           Si  tau(  23) = (  30.7876073  30.7876073  30.7876073  )
        24           Si  tau(  24) = (  30.7876073  30.7876073   0.0000000  )
        25           Si  tau(  25) = (  30.7876073  30.7876073  10.2625357  )
        26           Si  tau(  26) = (  30.7876073   0.0000000  20.5250715  )
        27           Si  tau(  27) = (  30.7876073   0.0000000  30.7876073  )
        28           Si  tau(  28) = (  30.7876073   0.0000000   0.0000000  )
        29           Si  tau(  29) = (  30.7876073   0.0000000  10.2625357  )
        30           Si  tau(  30) = (  30.7876073  10.2625357  20.5250715  )
        31           Si  tau(  31) = (  30.7876073  10.2625357  30.7876073  )
        32           Si  tau(  32) = (  30.7876073  10.2625357   0.0000000  )
        33           Si  tau(  33) = (  30.7876073  10.2625357  10.2625357  )
        34           Si  tau(  34) = (   0.0000000  20.5250715  20.5250715  )
        35           Si  tau(  35) = (   0.0000000  20.5250715  30.7876073  )
        36           Si  tau(  36) = (   0.0000000  20.5250715   0.0000000  )
        37           Si  tau(  37) = (   0.0000000  20.5250715  10.2625357  )
        38           Si  tau(  38) = (   0.0000000  30.7876073  20.5250715  )
        39           Si  tau(  39) = (   0.0000000  30.7876073  30.7876073  )
        40           Si  tau(  40) = (   0.0000000  30.7876073   0.0000000  )
        41           Si  tau(  41) = (   0.0000000  30.7876073  10.2625357  )
        42           Si  tau(  42) = (   0.0000000   0.0000000  20.5250715  )
        43           Si  tau(  43) = (   0.0000000   0.0000000  30.7876073  )
        44           Si  tau(  44) = (   0.0000000   0.0000000  10.2625357  )
        45           Si  tau(  45) = (   0.0000000  10.2625357  20.5250715  )
        46           Si  tau(  46) = (   0.0000000  10.2625357  30.7876073  )
        47           Si  tau(  47) = (   0.0000000  10.2625357   0.0000000  )
        48           Si  tau(  48) = (   0.0000000  10.2625357  10.2625357  )
        49           Si  tau(  49) = (  10.2625357  20.5250715  20.5250715  )
        50           Si  tau(  50) = (  10.2625357  20.5250715  30.7876073  )
        51           Si  tau(  51) = (  10.2625357  20.5250715   0.0000000  )
        52           Si  tau(  52) = (  10.2625357  20.5250715  10.2625357  )
        53           Si  tau(  53) = (  10.2625357  30.7876073  20.5250715  )
        54           Si  tau(  54) = (  10.2625357  30.7876073  30.7876073  )
        55           Si  tau(  55) = (  10.2625357  30.7876073   0.0000000  )
        56           Si  tau(  56) = (  10.2625357  30.7876073  10.2625357  )
        57           Si  tau(  57) = (  10.2625357   0.0000000  20.5250715  )
        58           Si  tau(  58) = (  10.2625357   0.0000000  30.7876073  )
        59           Si  tau(  59) = (  10.2625357   0.0000000   0.0000000  )
        60           Si  tau(  60) = (  10.2625357   0.0000000  10.2625357  )
        61           Si  tau(  61) = (  10.2625357  10.2625357  20.5250715  )
        62           Si  tau(  62) = (  10.2625357  10.2625357  30.7876073  )
        63           Si  tau(  63) = (  10.2625357  10.2625357   0.0000000  )
        64           Si  tau(  64) = (  10.2625357  10.2625357  10.2625357  )
        65           Si  tau(  65) = (  20.5250715  25.6563394  25.6563394  )
        66           Si  tau(  66) = (  20.5250715  25.6563394  35.9188751  )
        67           Si  tau(  67) = (  20.5250715  25.6563394   5.1312679  )
        68           Si  tau(  68) = (  20.5250715  25.6563394  15.3938036  )
        69           Si  tau(  69) = (  20.5250715  35.9188751  25.6563394  )
        70           Si  tau(  70) = (  20.5250715  35.9188751  35.9188751  )
        71           Si  tau(  71) = (  20.5250715  35.9188751   5.1312679  )
        72           Si  tau(  72) = (  20.5250715  35.9188751  15.3938036  )
        73           Si  tau(  73) = (  20.5250715   5.1312679  25.6563394  )
        74           Si  tau(  74) = (  20.5250715   5.1312679  35.9188751  )
        75           Si  tau(  75) = (  20.5250715   5.1312679   5.1312679  )
        76           Si  tau(  76) = (  20.5250715   5.1312679  15.3938036  )
        77           Si  tau(  77) = (  20.5250715  15.3938036  25.6563394  )
        78           Si  tau(  78) = (  20.5250715  15.3938036  35.9188751  )
        79           Si  tau(  79) = (  20.5250715  15.3938036   5.1312679  )
        80           Si  tau(  80) = (  20.5250715  15.3938036  15.3938036  )
        81           Si  tau(  81) = (  30.7876073  25.6563394  25.6563394  )
        82           Si  tau(  82) = (  30.7876073  25.6563394  35.9188751  )
        83           Si  tau(  83) = (  30.7876073  25.6563394   5.1312679  )
        84           Si  tau(  84) = (  30.7876073  25.6563394  15.3938036  )
        85           Si  tau(  85) = (  30.7876073  35.9188751  25.6563394  )
        86           Si  tau(  86) = (  30.7876073  35.9188751  35.9188751  )
        87           Si  tau(  87) = (  30.7876073  35.9188751   5.1312679  )
        88           Si  tau(  88) = (  30.7876073  35.9188751  15.3938036  )
        89           Si  tau(  89) = (  30.7876073   5.1312679  25.6563394  )
        90           Si  tau(  90) = (  30.7876073   5.1312679  35.9188751  )
        91           Si  tau(  91) = (  30.7876073   5.1312679   5.1312679  )
        92           Si  tau(  92) = (  30.7876073   5.1312679  15.3938036  )
        93           Si  tau(  93) = (  30.7876073  15.3938036  25.6563394  )
        94           Si  tau(  94) = (  30.7876073  15.3938036  35.9188751  )
        95           Si  tau(  95) = (  30.7876073  15.3938036   5.1312679  )
        96           Si  tau(  96) = (  30.7876073  15.3938036  15.3938036  )
        97           Si  tau(  97) = (   0.0000000  25.6563394  25.6563394  )
        98           Si  tau(  98) = (   0.0000000  25.6563394  35.9188751  )
        99           Si  tau(  99) = (   0.0000000  25.6563394   5.1312679  )
       100           Si  tau( 100) = (   0.0000000  25.6563394  15.3938036  )
       101           Si  tau( 101) = (   0.0000000  35.9188751  25.6563394  )
       102           Si  tau( 102) = (   0.0000000  35.9188751  35.9188751  )
       103           Si  tau( 103) = (   0.0000000  35.9188751   5.1312679  )
       104           Si  tau( 104) = (   0.0000000  35.9188751  15.3938036  )
       105           Si  tau( 105) = (   0.0000000   5.1312679  25.6563394  )
       106           Si  tau( 106) = (   0.0000000   5.1312679  35.9188751  )
       107           Si  tau( 107) = (   0.0000000   5.1312679   5.1312679  )
       108           Si  tau( 108) = (   0.0000000   5.1312679  15.3938036  )
       109           Si  tau( 109) = (   0.0000000  15.3938036  25.6563394  )
       110           Si  tau( 110) = (   0.0000000  15.3938036  35.9188751  )
       111           Si  tau( 111) = (   0.0000000  15.3938036   5.1312679  )
       112           Si  tau( 112) = (   0.0000000  15.3938036  15.3938036  )
       113           Si  tau( 113) = (  10.2625357  25.6563394  25.6563394  )
       114           Si  tau( 114) = (  10.2625357  25.6563394  35.9188751  )
       115           Si  tau( 115) = (  10.2625357  25.6563394   5.1312679  )
       116           Si  tau( 116) = (  10.2625357  25.6563394  15.3938036  )
       117           Si  tau( 117) = (  10.2625357  35.9188751  25.6563394  )
       118           Si  tau( 118) = (  10.2625357  35.9188751  35.9188751  )
       119           Si  tau( 119) = (  10.2625357  35.9188751   5.1312679  )
       120           Si  tau( 120) = (  10.2625357  35.9188751  15.3938036  )
       121           Si  tau( 121) = (  10.2625357   5.1312679  25.6563394  )
       122           Si  tau( 122) = (  10.2625357   5.1312679  35.9188751  )
       123           Si  tau( 123) = (  10.2625357   5.1312679   5.1312679  )
       124           Si  tau( 124) = (  10.2625357   5.1312679  15.3938036  )
       125           Si  tau( 125) = (  10.2625357  15.3938036  25.6563394  )
       126           Si  tau( 126) = (  10.2625357  15.3938036  35.9188751  )
       127           Si  tau( 127) = (  10.2625357  15.3938036   5.1312679  )
       128           Si  tau( 128) = (  10.2625357  15.3938036  15.3938036  )
       129           Si  tau( 129) = (  25.6563394  20.5250715  25.6563394  )
       130           Si  tau( 130) = (  25.6563394  20.5250715  35.9188751  )
       131           Si  tau( 131) = (  25.6563394  20.5250715   5.1312679  )
       132           Si  tau( 132) = (  25.6563394  20.5250715  15.3938036  )
       133           Si  tau( 133) = (  25.6563394  30.7876073  25.6563394  )
       134           Si  tau( 134) = (  25.6563394  30.7876073  35.9188751  )
       135           Si  tau( 135) = (  25.6563394  30.7876073   5.1312679  )
       136           Si  tau( 136) = (  25.6563394  30.7876073  15.3938036  )
       137           Si  tau( 137) = (  25.6563394   0.0000000  25.6563394  )
       138           Si  tau( 138) = (  25.6563394   0.0000000  35.9188751  )
       139           Si  tau( 139) = (  25.6563394   0.0000000   5.1312679  )
       140           Si  tau( 140) = (  25.6563394   0.0000000  15.3938036  )
       141           Si  tau( 141) = (  25.6563394  10.2625357  25.6563394  )
       142           Si  tau( 142) = (  25.6563394  10.2625357  35.9188751  )
       143           Si  tau( 143) = (  25.6563394  10.2625357   5.1312679  )
       144           Si  tau( 144) = (  25.6563394  10.2625357  15.3938036  )
       145           Si  tau( 145) = (  35.9188751  20.5250715  25.6563394  )
       146           Si  tau( 146) = (  35.9188751  20.5250715  35.9188751  )
       147           Si  tau( 147) = (  35.9188751  20.5250715   5.1312679  )
       148           Si  tau( 148) = (  35.9188751  20.5250715  15.3938036  )
       149           Si  tau( 149) = (  35.9188751  30.7876073  25.6563394  )
       150           Si  tau( 150) = (  35.9188751  30.7876073  35.9188751  )
       151           Si  tau( 151) = (  35.9188751  30.7876073   5.1312679  )
       152           Si  tau( 152) = (  35.9188751  30.7876073  15.3938036  )
       153           Si  tau( 153) = (  35.9188751   0.0000000  25.6563394  )
       154           Si  tau( 154) = (  35.9188751   0.0000000  35.9188751  )
       155           Si  tau( 155) = (  35.9188751   0.0000000   5.1312679  )
       156           Si  tau( 156) = (  35.9188751   0.0000000  15.3938036  )
       157           Si  tau( 157) = (  35.9188751  10.2625357  25.6563394  )
       158           Si  tau( 158) = (  35.9188751  10.2625357  35.9188751  )
       159           Si  tau( 159) = (  35.9188751  10.2625357   5.1312679  )
       160           Si  tau( 160) = (  35.9188751  10.2625357  15.3938036  )
       161           Si  tau( 161) = (   5.1312679  20.5250715  25.6563394  )
       162           Si  tau( 162) = (   5.1312679  20.5250715  35.9188751  )
       163           Si  tau( 163) = (   5.1312679  20.5250715   5.1312679  )
       164           Si  tau( 164) = (   5.1312679  20.5250715  15.3938036  )
       165           Si  tau( 165) = (   5.1312679  30.7876073  25.6563394  )
       166           Si  tau( 166) = (   5.1312679  30.7876073  35.9188751  )
       167           Si  tau( 167) = (   5.1312679  30.7876073   5.1312679  )
       168           Si  tau( 168) = (   5.1312679  30.7876073  15.3938036  )
       169           Si  tau( 169) = (   5.1312679   0.0000000  25.6563394  )
       170           Si  tau( 170) = (   5.1312679   0.0000000  35.9188751  )
       171           Si  tau( 171) = (   5.1312679   0.0000000   5.1312679  )
       172           Si  tau( 172) = (   5.1312679   0.0000000  15.3938036  )
       173           Si  tau( 173) = (   5.1312679  10.2625357  25.6563394  )
       174           Si  tau( 174) = (   5.1312679  10.2625357  35.9188751  )
       175           Si  tau( 175) = (   5.1312679  10.2625357   5.1312679  )
       176           Si  tau( 176) = (   5.1312679  10.2625357  15.3938036  )
       177           Si  tau( 177) = (  15.3938036  20.5250715  25.6563394  )
       178           Si  tau( 178) = (  15.3938036  20.5250715  35.9188751  )
       179           Si  tau( 179) = (  15.3938036  20.5250715   5.1312679  )
       180           Si  tau( 180) = (  15.3938036  20.5250715  15.3938036  )
       181           Si  tau( 181) = (  15.3938036  30.7876073  25.6563394  )
       182           Si  tau( 182) = (  15.3938036  30.7876073  35.9188751  )
       183           Si  tau( 183) = (  15.3938036  30.7876073   5.1312679  )
       184           Si  tau( 184) = (  15.3938036  30.7876073  15.3938036  )
       185           Si  tau( 185) = (  15.3938036   0.0000000  25.6563394  )
       186           Si  tau( 186) = (  15.3938036   0.0000000  35.9188751  )
       187           Si  tau( 187) = (  15.3938036   0.0000000   5.1312679  )
       188           Si  tau( 188) = (  15.3938036   0.0000000  15.3938036  )
       189           Si  tau( 189) = (  15.3938036  10.2625357  25.6563394  )
       190           Si  tau( 190) = (  15.3938036  10.2625357  35.9188751  )
       191           Si  tau( 191) = (  15.3938036  10.2625357   5.1312679  )
       192           Si  tau( 192) = (  15.3938036  10.2625357  15.3938036  )
       193           Si  tau( 193) = (  25.6563394  25.6563394  20.5250715  )
       194           Si  tau( 194) = (  25.6563394  25.6563394  30.7876073  )
       195           Si  tau( 195) = (  25.6563394  25.6563394   0.0000000  )
       196           Si  tau( 196) = (  25.6563394  25.6563394  10.2625357  )
       197           Si  tau( 197) = (  25.6563394  35.9188751  20.5250715  )
       198           Si  tau( 198) = (  25.6563394  35.9188751  30.7876073  )
       199           Si  tau( 199) = (  25.6563394  35.9188751   0.0000000  )
       200           Si  tau( 200) = (  25.6563394  35.9188751  10.2625357  )
       201           Si  tau( 201) = (  25.6563394   5.1312679  20.5250715  )
       202           Si  tau( 202) = (  25.6563394   5.1312679  30.7876073  )
       203           Si  tau( 203) = (  25.6563394   5.1312679   0.0000000  )
       204           Si  tau( 204) = (  25.6563394   5.1312679  10.2625357  )
       205           Si  tau( 205) = (  25.6563394  15.3938036  20.5250715  )
       206           Si  tau( 206) = (  25.6563394  15.3938036  30.7876073  )
       207           Si  tau( 207) = (  25.6563394  15.3938036   0.0000000  )
       208           Si  tau( 208) = (  25.6563394  15.3938036  10.2625357  )
       209           Si  tau( 209) = (  35.9188751  25.6563394  20.5250715  )
       210           Si  tau( 210) = (  35.9188751  25.6563394  30.7876073  )
       211           Si  tau( 211) = (  35.9188751  25.6563394   0.0000000  )
       212           Si  tau( 212) = (  35.9188751  25.6563394  10.2625357  )
       213           Si  tau( 213) = (  35.9188751  35.9188751  20.5250715  )
       214           Si  tau( 214) = (  35.9188751  35.9188751  30.7876073  )
       215           Si  tau( 215) = (  35.9188751  35.9188751   0.0000000  )
       216           Si  tau( 216) = (  35.9188751  35.9188751  10.2625357  )
       217           Si  tau( 217) = (  35.9188751   5.1312679  20.5250715  )
       218           Si  tau( 218) = (  35.9188751   5.1312679  30.7876073  )
       219           Si  tau( 219) = (  35.9188751   5.1312679   0.0000000  )
       220           Si  tau( 220) = (  35.9188751   5.1312679  10.2625357  )
       221           Si  tau( 221) = (  35.9188751  15.3938036  20.5250715  )
       222           Si  tau( 222) = (  35.9188751  15.3938036  30.7876073  )
       223           Si  tau( 223) = (  35.9188751  15.3938036   0.0000000  )
       224           Si  tau( 224) = (  35.9188751  15.3938036  10.2625357  )
       225           Si  tau( 225) = (   5.1312679  25.6563394  20.5250715  )
       226           Si  tau( 226) = (   5.1312679  25.6563394  30.7876073  )
       227           Si  tau( 227) = (   5.1312679  25.6563394   0.0000000  )
       228           Si  tau( 228) = (   5.1312679  25.6563394  10.2625357  )
       229           Si  tau( 229) = (   5.1312679  35.9188751  20.5250715  )
       230           Si  tau( 230) = (   5.1312679  35.9188751  30.7876073  )
       231           Si  tau( 231) = (   5.1312679  35.9188751   0.0000000  )
       232           Si  tau( 232) = (   5.1312679  35.9188751  10.2625357  )
       233           Si  tau( 233) = (   5.1312679   5.1312679  20.5250715  )
       234           Si  tau( 234) = (   5.1312679   5.1312679  30.7876073  )
       235           Si  tau( 235) = (   5.1312679   5.1312679   0.0000000  )
       236           Si  tau( 236) = (   5.1312679   5.1312679  10.2625357  )
       237           Si  tau( 237) = (   5.1312679  15.3938036  20.5250715  )
       238           Si  tau( 238) = (   5.1312679  15.3938036  30.7876073  )
       239           Si  tau( 239) = (   5.1312679  15.3938036   0.0000000  )
       240           Si  tau( 240) = (   5.1312679  15.3938036  10.2625357  )
       241           Si  tau( 241) = (  15.3938036  25.6563394  20.5250715  )
       242           Si  tau( 242) = (  15.3938036  25.6563394  30.7876073  )
       243           Si  tau( 243) = (  15.3938036  25.6563394   0.0000000  )
       244           Si  tau( 244) = (  15.3938036  25.6563394  10.2625357  )
       245           Si  tau( 245) = (  15.3938036  35.9188751  20.5250715  )
       246           Si  tau( 246) = (  15.3938036  35.9188751  30.7876073  )
       247           Si  tau( 247) = (  15.3938036  35.9188751   0.0000000  )
       248           Si  tau( 248) = (  15.3938036  35.9188751  10.2625357  )
       249           Si  tau( 249) = (  15.3938036   5.1312679  20.5250715  )
       250           Si  tau( 250) = (  15.3938036   5.1312679  30.7876073  )
       251           Si  tau( 251) = (  15.3938036   5.1312679   0.0000000  )
       252           Si  tau( 252) = (  15.3938036   5.1312679  10.2625357  )
       253           Si  tau( 253) = (  15.3938036  15.3938036  20.5250715  )
       254           Si  tau( 254) = (  15.3938036  15.3938036  30.7876073  )
       255           Si  tau( 255) = (  15.3938036  15.3938036   0.0000000  )
       256           Si  tau( 256) = (  15.3938036  15.3938036  10.2625357  )
       257           Si  tau( 257) = (  28.2219733  28.2219733  23.0907054  )
       258           Si  tau( 258) = (  28.2219733  28.2219733  33.3532412  )
       259           Si  tau( 259) = (  28.2219733  28.2219733   2.5656339  )
       260           Si  tau( 260) = (  28.2219733  28.2219733  12.8281697  )
       261           Si  tau( 261) = (  28.2219733  38.4845091  23.0907054  )
       262           Si  tau( 262) = (  28.2219733  38.4845091  33.3532412  )
       263           Si  tau( 263) = (  28.2219733  38.4845091   2.5656339  )
       264           Si  tau( 264) = (  28.2219733  38.4845091  12.8281697  )
       265           Si  tau( 265) = (  28.2219733   7.6969018  23.0907054  )
       266           Si  tau( 266) = (  28.2219733   7.6969018  33.3532412  )
       267           Si  tau( 267) = (  28.2219733   7.6969018   2.5656339  )
       268           Si  tau( 268) = (  28.2219733   7.6969018  12.8281697  )
       269           Si  tau( 269) = (  28.2219733  17.9594376  23.0907054  )
       270           Si  tau( 270) = (  28.2219733  17.9594376  33.3532412  )
       271           Si  tau( 271) = (  28.2219733  17.9594376   2.5656339  )
       272           Si  tau( 272) = (  28.2219733  17.9594376  12.8281697  )
       273           Si  tau( 273) = (  38.4845091  28.2219733  23.0907054  )
       274           Si  tau( 274) = (  38.4845091  28.2219733  33.3532412  )
       275           Si  tau( 275) = (  38.4845091  28.2219733   2.5656339  )
       276           Si  tau( 276) = (  38.4845091  28.2219733  12.8281697  )
       277           Si  tau( 277) = (  38.4845091  38.4845091  23.0907054  )
       278           Si  tau( 278) = (  38.4845091  38.4845091  33.3532412  )
       279           Si  tau( 279) = (  38.4845091  38.4845091   2.5656339  )
       280           Si  tau( 280) = (  38.4845091  38.4845091  12.8281697  )
       281           Si  tau( 281) = (  38.4845091   7.6969018  23.0907054  )
       282           Si  tau( 282) = (  38.4845091   7.6969018  33.3532412  )
       283           Si  tau( 283) = (  38.4845091   7.6969018   2.5656339  )
       284           Si  tau( 284) = (  38.4845091   7.6969018  12.8281697  )
       285           Si  tau( 285) = (  38.4845091  17.9594376  23.0907054  )
       286           Si  tau( 286) = (  38.4845091  17.9594376  33.3532412  )
       287           Si  tau( 287) = (  38.4845091  17.9594376   2.5656339  )
       288           Si  tau( 288) = (  38.4845091  17.9594376  12.8281697  )
       289           Si  tau( 289) = (   7.6969018  28.2219733  23.0907054  )
       290           Si  tau( 290) = (   7.6969018  28.2219733  33.3532412  )
       291           Si  tau( 291) = (   7.6969018  28.2219733   2.5656339  )
       292           Si  tau( 292) = (   7.6969018  28.2219733  12.8281697  )
       293           Si  tau( 293) = (   7.6969018  38.4845091  23.0907054  )
       294           Si  tau( 294) = (   7.6969018  38.4845091  33.3532412  )
       295           Si  tau( 295) = (   7.6969018  38.4845091   2.5656339  )
       296           Si  tau( 296) = (   7.6969018  38.4845091  12.8281697  )
       297           Si  tau( 297) = (   7.6969018   7.6969018  23.0907054  )
       298           Si  tau( 298) = (   7.6969018   7.6969018  33.3532412  )
       299           Si  tau( 299) = (   7.6969018   7.6969018   2.5656339  )
       300           Si  tau( 300) = (   7.6969018   7.6969018  12.8281697  )
       301           Si  tau( 301) = (   7.6969018  17.9594376  23.0907054  )
       302           Si  tau( 302) = (   7.6969018  17.9594376  33.3532412  )
       303           Si  tau( 303) = (   7.6969018  17.9594376   2.5656339  )
       304           Si  tau( 304) = (   7.6969018  17.9594376  12.8281697  )
       305           Si  tau( 305) = (  17.9594376  28.2219733  23.0907054  )
       306           Si  tau( 306) = (  17.9594376  28.2219733  33.3532412  )
       307           Si  tau( 307) = (  17.9594376  28.2219733   2.5656339  )
       308           Si  tau( 308) = (  17.9594376  28.2219733  12.8281697  )
       309           Si  tau( 309) = (  17.9594376  38.4845091  23.0907054  )
       310           Si  tau( 310) = (  17.9594376  38.4845091  33.3532412  )
       311           Si  tau( 311) = (  17.9594376  38.4845091   2.5656339  )
       312           Si  tau( 312) = (  17.9594376  38.4845091  12.8281697  )
       313           Si  tau( 313) = (  17.9594376   7.6969018  23.0907054  )
       314           Si  tau( 314) = (  17.9594376   7.6969018  33.3532412  )
       315           Si  tau( 315) = (  17.9594376   7.6969018   2.5656339  )
       316           Si  tau( 316) = (  17.9594376   7.6969018  12.8281697  )
       317           Si  tau( 317) = (  17.9594376  17.9594376  23.0907054  )
       318           Si  tau( 318) = (  17.9594376  17.9594376  33.3532412  )
       319           Si  tau( 319) = (  17.9594376  17.9594376   2.5656339  )
       320           Si  tau( 320) = (  17.9594376  17.9594376  12.8281697  )
       321           Si  tau( 321) = (  28.2219733  23.0907054  28.2219733  )
       322           Si  tau( 322) = (  28.2219733  23.0907054  38.4845091  )
       323           Si  tau( 323) = (  28.2219733  23.0907054   7.6969018  )
       324           Si  tau( 324) = (  28.2219733  23.0907054  17.9594376  )
       325           Si  tau( 325) = (  28.2219733  33.3532412  28.2219733  )
       326           Si  tau( 326) = (  28.2219733  33.3532412  38.4845091  )
       327           Si  tau( 327) = (  28.2219733  33.3532412   7.6969018  )
       328           Si  tau( 328) = (  28.2219733  33.3532412  17.9594376  )
       329           Si  tau( 329) = (  28.2219733   2.5656339  28.2219733  )
       330           Si  tau( 330) = (  28.2219733   2.5656339  38.4845091  )
       331           Si  tau( 331) = (  28.2219733   2.5656339   7.6969018  )
       332           Si  tau( 332) = (  28.2219733   2.5656339  17.9594376  )
       333           Si  tau( 333) = (  28.2219733  12.8281697  28.2219733  )
       334           Si  tau( 334) = (  28.2219733  12.8281697  38.4845091  )
       335           Si  tau( 335) = (  28.2219733  12.8281697   7.6969018  )
       336           Si  tau( 336) = (  28.2219733  12.8281697  17.9594376  )
       337           Si  tau( 337) = (  38.4845091  23.0907054  28.2219733  )
       338           Si  tau( 338) = (  38.4845091  23.0907054  38.4845091  )
       339           Si  tau( 339) = (  38.4845091  23.0907054   7.6969018  )
       340           Si  tau( 340) = (  38.4845091  23.0907054  17.9594376  )
       341           Si  tau( 341) = (  38.4845091  33.3532412  28.2219733  )
       342           Si  tau( 342) = (  38.4845091  33.3532412  38.4845091  )
       343           Si  tau( 343) = (  38.4845091  33.3532412   7.6969018  )
       344           Si  tau( 344) = (  38.4845091  33.3532412  17.9594376  )
       345           Si  tau( 345) = (  38.4845091   2.5656339  28.2219733  )
       346           Si  tau( 346) = (  38.4845091   2.5656339  38.4845091  )
       347           Si  tau( 347) = (  38.4845091   2.5656339   7.6969018  )
       348           Si  tau( 348) = (  38.4845091   2.5656339  17.9594376  )
       349           Si  tau( 349) = (  38.4845091  12.8281697  28.2219733  )
       350           Si  tau( 350) = (  38.4845091  12.8281697  38.4845091  )
       351           Si  tau( 351) = (  38.4845091  12.8281697   7.6969018  )
       352           Si  tau( 352) = (  38.4845091  12.8281697  17.9594376  )
       353           Si  tau( 353) = (   7.6969018  23.0907054  28.2219733  )
       354           Si  tau( 354) = (   7.6969018  23.0907054  38.4845091  )
       355           Si  tau( 355) = (   7.6969018  23.0907054   7.6969018  )
       356           Si  tau( 356) = (   7.6969018  23.0907054  17.9594376  )
       357           Si  tau( 357) = (   7.6969018  33.3532412  28.2219733  )
       358           Si  tau( 358) = (   7.6969018  33.3532412  38.4845091  )
       359           Si  tau( 359) = (   7.6969018  33.3532412   7.6969018  )
       360           Si  tau( 360) = (   7.6969018  33.3532412  17.9594376  )
       361           Si  tau( 361) = (   7.6969018   2.5656339  28.2219733  )
       362           Si  tau( 362) = (   7.6969018   2.5656339  38.4845091  )
       363           Si  tau( 363) = (   7.6969018   2.5656339   7.6969018  )
       364           Si  tau( 364) = (   7.6969018   2.5656339  17.9594376  )
       365           Si  tau( 365) = (   7.6969018  12.8281697  28.2219733  )
       366           Si  tau( 366) = (   7.6969018  12.8281697  38.4845091  )
       367           Si  tau( 367) = (   7.6969018  12.8281697   7.6969018  )
       368           Si  tau( 368) = (   7.6969018  12.8281697  17.9594376  )
       369           Si  tau( 369) = (  17.9594376  23.0907054  28.2219733  )
       370           Si  tau( 370) = (  17.9594376  23.0907054  38.4845091  )
       371           Si  tau( 371) = (  17.9594376  23.0907054   7.6969018  )
       372           Si  tau( 372) = (  17.9594376  23.0907054  17.9594376  )
       373           Si  tau( 373) = (  17.9594376  33.3532412  28.2219733  )
       374           Si  tau( 374) = (  17.9594376  33.3532412  38.4845091  )
       375           Si  tau( 375) = (  17.9594376  33.3532412   7.6969018  )
       376           Si  tau( 376) = (  17.9594376  33.3532412  17.9594376  )
       377           Si  tau( 377) = (  17.9594376   2.5656339  28.2219733  )
       378           Si  tau( 378) = (  17.9594376   2.5656339  38.4845091  )
       379           Si  tau( 379) = (  17.9594376   2.5656339   7.6969018  )
       380           Si  tau( 380) = (  17.9594376   2.5656339  17.9594376  )
       381           Si  tau( 381) = (  17.9594376  12.8281697  28.2219733  )
       382           Si  tau( 382) = (  17.9594376  12.8281697  38.4845091  )
       383           Si  tau( 383) = (  17.9594376  12.8281697   7.6969018  )
       384           Si  tau( 384) = (  17.9594376  12.8281697  17.9594376  )
       385           Si  tau( 385) = (  23.0907054  28.2219733  28.2219733  )
       386           Si  tau( 386) = (  23.0907054  28.2219733  38.4845091  )
       387           Si  tau( 387) = (  23.0907054  28.2219733   7.6969018  )
       388           Si  tau( 388) = (  23.0907054  28.2219733  17.9594376  )
       389           Si  tau( 389) = (  23.0907054  38.4845091  28.2219733  )
       390           Si  tau( 390) = (  23.0907054  38.4845091  38.4845091  )
       391           Si  tau( 391) = (  23.0907054  38.4845091   7.6969018  )
       392           Si  tau( 392) = (  23.0907054  38.4845091  17.9594376  )
       393           Si  tau( 393) = (  23.0907054   7.6969018  28.2219733  )
       394           Si  tau( 394) = (  23.0907054   7.6969018  38.4845091  )
       395           Si  tau( 395) = (  23.0907054   7.6969018   7.6969018  )
       396           Si  tau( 396) = (  23.0907054   7.6969018  17.9594376  )
       397           Si  tau( 397) = (  23.0907054  17.9594376  28.2219733  )
       398           Si  tau( 398) = (  23.0907054  17.9594376  38.4845091  )
       399           Si  tau( 399) = (  23.0907054  17.9594376   7.6969018  )
       400           Si  tau( 400) = (  23.0907054  17.9594376  17.9594376  )
       401           Si  tau( 401) = (  33.3532412  28.2219733  28.2219733  )
       402           Si  tau( 402) = (  33.3532412  28.2219733  38.4845091  )
       403           Si  tau( 403) = (  33.3532412  28.2219733   7.6969018  )
       404           Si  tau( 404) = (  33.3532412  28.2219733  17.9594376  )
       405           Si  tau( 405) = (  33.3532412  38.4845091  28.2219733  )
       406           Si  tau( 406) = (  33.3532412  38.4845091  38.4845091  )
       407           Si  tau( 407) = (  33.3532412  38.4845091   7.6969018  )
       408           Si  tau( 408) = (  33.3532412  38.4845091  17.9594376  )
       409           Si  tau( 409) = (  33.3532412   7.6969018  28.2219733  )
       410           Si  tau( 410) = (  33.3532412   7.6969018  38.4845091  )
       411           Si  tau( 411) = (  33.3532412   7.6969018   7.6969018  )
       412           Si  tau( 412) = (  33.3532412   7.6969018  17.9594376  )
       413           Si  tau( 413) = (  33.3532412  17.9594376  28.2219733  )
       414           Si  tau( 414) = (  33.3532412  17.9594376  38.4845091  )
       415           Si  tau( 415) = (  33.3532412  17.9594376   7.6969018  )
       416           Si  tau( 416) = (  33.3532412  17.9594376  17.9594376  )
       417           Si  tau( 417) = (   2.5656339  28.2219733  28.2219733  )
       418           Si  tau( 418) = (   2.5656339  28.2219733  38.4845091  )
       419           Si  tau( 419) = (   2.5656339  28.2219733   7.6969018  )
       420           Si  tau( 420) = (   2.5656339  28.2219733  17.9594376  )
       421           Si  tau( 421) = (   2.5656339  38.4845091  28.2219733  )
       422           Si  tau( 422) = (   2.5656339  38.4845091  38.4845091  )
       423           Si  tau( 423) = (   2.5656339  38.4845091   7.6969018  )
       424           Si  tau( 424) = (   2.5656339  38.4845091  17.9594376  )
       425           Si  tau( 425) = (   2.5656339   7.6969018  28.2219733  )
       426           Si  tau( 426) = (   2.5656339   7.6969018  38.4845091  )
       427           Si  tau( 427) = (   2.5656339   7.6969018   7.6969018  )
       428           Si  tau( 428) = (   2.5656339   7.6969018  17.9594376  )
       429           Si  tau( 429) = (   2.5656339  17.9594376  28.2219733  )
       430           Si  tau( 430) = (   2.5656339  17.9594376  38.4845091  )
       431           Si  tau( 431) = (   2.5656339  17.9594376   7.6969018  )
       432           Si  tau( 432) = (   2.5656339  17.9594376  17.9594376  )
       433           Si  tau( 433) = (  12.8281697  28.2219733  28.2219733  )
       434           Si  tau( 434) = (  12.8281697  28.2219733  38.4845091  )
       435           Si  tau( 435) = (  12.8281697  28.2219733   7.6969018  )
       436           Si  tau( 436) = (  12.8281697  28.2219733  17.9594376  )
       437           Si  tau( 437) = (  12.8281697  38.4845091  28.2219733  )
       438           Si  tau( 438) = (  12.8281697  38.4845091  38.4845091  )
       439           Si  tau( 439) = (  12.8281697  38.4845091   7.6969018  )
       440           Si  tau( 440) = (  12.8281697  38.4845091  17.9594376  )
       441           Si  tau( 441) = (  12.8281697   7.6969018  28.2219733  )
       442           Si  tau( 442) = (  12.8281697   7.6969018  38.4845091  )
       443           Si  tau( 443) = (  12.8281697   7.6969018   7.6969018  )
       444           Si  tau( 444) = (  12.8281697   7.6969018  17.9594376  )
       445           Si  tau( 445) = (  12.8281697  17.9594376  28.2219733  )
       446           Si  tau( 446) = (  12.8281697  17.9594376  38.4845091  )
       447           Si  tau( 447) = (  12.8281697  17.9594376   7.6969018  )
       448           Si  tau( 448) = (  12.8281697  17.9594376  17.9594376  )
       449           Si  tau( 449) = (  23.0907054  23.0907054  23.0907054  )
       450           Si  tau( 450) = (  23.0907054  23.0907054  33.3532412  )
       451           Si  tau( 451) = (  23.0907054  23.0907054   2.5656339  )
       452           Si  tau( 452) = (  23.0907054  23.0907054  12.8281697  )
       453           Si  tau( 453) = (  23.0907054  33.3532412  23.0907054  )
       454           Si  tau( 454) = (  23.0907054  33.3532412  33.3532412  )
       455           Si  tau( 455) = (  23.0907054  33.3532412   2.5656339  )
       456           Si  tau( 456) = (  23.0907054  33.3532412  12.8281697  )
       457           Si  tau( 457) = (  23.0907054   2.5656339  23.0907054  )
       458           Si  tau( 458) = (  23.0907054   2.5656339  33.3532412  )
       459           Si  tau( 459) = (  23.0907054   2.5656339   2.5656339  )
       460           Si  tau( 460) = (  23.0907054   2.5656339  12.8281697  )
       461           Si  tau( 461) = (  23.0907054  12.8281697  23.0907054  )
       462           Si  tau( 462) = (  23.0907054  12.8281697  33.3532412  )
       463           Si  tau( 463) = (  23.0907054  12.8281697   2.5656339  )
       464           Si  tau( 464) = (  23.0907054  12.8281697  12.8281697  )
       465           Si  tau( 465) = (  33.3532412  23.0907054  23.0907054  )
       466           Si  tau( 466) = (  33.3532412  23.0907054  33.3532412  )
       467           Si  tau( 467) = (  33.3532412  23.0907054   2.5656339  )
       468           Si  tau( 468) = (  33.3532412  23.0907054  12.8281697  )
       469           Si  tau( 469) = (  33.3532412  33.3532412  23.0907054  )
       470           Si  tau( 470) = (  33.3532412  33.3532412  33.3532412  )
       471           Si  tau( 471) = (  33.3532412  33.3532412   2.5656339  )
       472           Si  tau( 472) = (  33.3532412  33.3532412  12.8281697  )
       473           Si  tau( 473) = (  33.3532412   2.5656339  23.0907054  )
       474           Si  tau( 474) = (  33.3532412   2.5656339  33.3532412  )
       475           Si  tau( 475) = (  33.3532412   2.5656339   2.5656339  )
       476           Si  tau( 476) = (  33.3532412   2.5656339  12.8281697  )
       477           Si  tau( 477) = (  33.3532412  12.8281697  23.0907054  )
       478           Si  tau( 478) = (  33.3532412  12.8281697  33.3532412  )
       479           Si  tau( 479) = (  33.3532412  12.8281697   2.5656339  )
       480           Si  tau( 480) = (  33.3532412  12.8281697  12.8281697  )
       481           Si  tau( 481) = (   2.5656339  23.0907054  23.0907054  )
       482           Si  tau( 482) = (   2.5656339  23.0907054  33.3532412  )
       483           Si  tau( 483) = (   2.5656339  23.0907054   2.5656339  )
       484           Si  tau( 484) = (   2.5656339  23.0907054  12.8281697  )
       485           Si  tau( 485) = (   2.5656339  33.3532412  23.0907054  )
       486           Si  tau( 486) = (   2.5656339  33.3532412  33.3532412  )
       487           Si  tau( 487) = (   2.5656339  33.3532412   2.5656339  )
       488           Si  tau( 488) = (   2.5656339  33.3532412  12.8281697  )
       489           Si  tau( 489) = (   2.5656339   2.5656339  23.0907054  )
       490           Si  tau( 490) = (   2.5656339   2.5656339  33.3532412  )
       491           Si  tau( 491) = (   2.5656339   2.5656339   2.5656339  )
       492           Si  tau( 492) = (   2.5656339   2.5656339  12.8281697  )
       493           Si  tau( 493) = (   2.5656339  12.8281697  23.0907054  )
       494           Si  tau( 494) = (   2.5656339  12.8281697  33.3532412  )
       495           Si  tau( 495) = (   2.5656339  12.8281697   2.5656339  )
       496           Si  tau( 496) = (   2.5656339  12.8281697  12.8281697  )
       497           Si  tau( 497) = (  12.8281697  23.0907054  23.0907054  )
       498           Si  tau( 498) = (  12.8281697  23.0907054  33.3532412  )
       499           Si  tau( 499) = (  12.8281697  23.0907054   2.5656339  )
       500           Si  tau( 500) = (  12.8281697  23.0907054  12.8281697  )
       501           Si  tau( 501) = (  12.8281697  33.3532412  23.0907054  )
       502           Si  tau( 502) = (  12.8281697  33.3532412  33.3532412  )
       503           Si  tau( 503) = (  12.8281697  33.3532412   2.5656339  )
       504           Si  tau( 504) = (  12.8281697  33.3532412  12.8281697  )
       505           Si  tau( 505) = (  12.8281697   2.5656339  23.0907054  )
       506           Si  tau( 506) = (  12.8281697   2.5656339  33.3532412  )
       507           Si  tau( 507) = (  12.8281697   2.5656339   2.5656339  )
       508           Si  tau( 508) = (  12.8281697   2.5656339  12.8281697  )
       509           Si  tau( 509) = (  12.8281697  12.8281697  23.0907054  )
       510           Si  tau( 510) = (  12.8281697  12.8281697  33.3532412  )
       511           Si  tau( 511) = (  12.8281697  12.8281697   2.5656339  )
       512           Si  tau( 512) = (  12.8281697  12.8281697  12.8281697  )

     number of k points=     1  Gaussian smearing, width (Ry)=  0.0010
                       cart. coord. in units 2pi/alat
        k(    1) = (   0.0000000   0.0000000   0.0000000), wk =   2.0000000

     Dense  grid:  8583411 G-vectors     FFT dimensions: ( 324, 324, 324)

     Smooth grid:  1182051 G-vectors     FFT dimensions: ( 180, 180, 180)

     Estimated max dynamical RAM per process >       7.39 GB

     Estimated total dynamical RAM >     118.22 GB

     Initial potential from superposition of free atoms

     total cpu time spent up to now is       15.6 secs

     Self-consistent Calculation

     iteration #  1     ecut=    40.00 Ry     beta= 0.70

     Threshold (ethr) on eigenvalues was too large:
     Diagonalizing with lowered threshold


     total cpu time spent up to now is       27.7 secs

     total energy              =   -5126.82650026 Ry
     estimated scf accuracy    <      14.53670740 Ry
 
     Band energy sum           =      64.99726518 Ry

     iteration #  2     ecut=    40.00 Ry     beta= 0.70

     total cpu time spent up to now is       34.6 secs

     total energy              =   -5127.96197429 Ry
     estimated scf accuracy    <       0.54906100 Ry
 
     Band energy sum           =     124.50828828 Ry

     iteration #  3     ecut=    40.00 Ry     beta= 0.70

     total cpu time spent up to now is       53.1 secs

     total energy              =   -5128.12958547 Ry
     estimated scf accuracy    <       0.03063074 Ry
 
     Band energy sum           =     130.73312025 Ry

     iteration #  4     ecut=    40.00 Ry     beta= 0.70

     total cpu time spent up to now is       68.5 secs

     total energy              =   -5128.09302156 Ry
     estimated scf accuracy    <       0.54307534 Ry
 
     Band energy sum           =     126.98600328 Ry

     iteration #  5     ecut=    40.00 Ry     beta= 0.70

     total cpu time spent up to now is       78.7 secs

     total energy              =   -5128.14635253 Ry
     estimated scf accuracy    <       0.02683763 Ry
 
     Band energy sum           =     127.50200843 Ry

     iteration #  6     ecut=    40.00 Ry     beta= 0.70

     total cpu time spent up to now is       84.3 secs

     total energy              =   -5128.14914670 Ry
     estimated scf accuracy    <       0.00375771 Ry
 
     Band energy sum           =     127.79068318 Ry

     iteration #  7     ecut=    40.00 Ry     beta= 0.70

     total cpu time spent up to now is       89.9 secs

     total energy              =   -5128.14950325 Ry
     estimated scf accuracy    <       0.00084182 Ry
 
     Band energy sum           =     128.02534211 Ry

     iteration #  8     ecut=    40.00 Ry     beta= 0.70

     total cpu time spent up to now is       95.6 secs

     total energy              =   -5128.14958325 Ry
     estimated scf accuracy    <       0.00013023 Ry
 
     Band energy sum           =     128.20580946 Ry

     iteration #  9     ecut=    40.00 Ry     beta= 0.70

     total cpu time spent up to now is      101.7 secs

     total energy              =   -5128.14960460 Ry
     estimated scf accuracy    <       0.00001915 Ry
 
     Band energy sum           =     128.30361806 Ry

     iteration # 10     ecut=    40.00 Ry     beta= 0.70

     total cpu time spent up to now is      107.8 secs

     total energy              =   -5128.14960884 Ry
     estimated scf accuracy    <       0.00000356 Ry
 
     Band energy sum           =     128.33709272 Ry

     iteration # 11     ecut=    40.00 Ry     beta= 0.70

     total cpu time spent up to now is      114.1 secs

     total energy              =   -5128.14960950 Ry
     estimated scf accuracy    <       0.00000206 Ry
 
     Band energy sum           =     128.31948548 Ry

     iteration # 12     ecut=    40.00 Ry     beta= 0.70

     total cpu time spent up to now is      119.7 secs

     total energy              =   -5128.14960976 Ry
     estimated scf accuracy    <       0.00000088 Ry
 
     Band energy sum           =     128.32637092 Ry

     iteration # 13     ecut=    40.00 Ry     beta= 0.70

     total cpu time spent up to now is      125.6 secs

     total energy              =   -5128.14960986 Ry
     estimated scf accuracy    <       0.00000039 Ry
 
     Band energy sum           =     128.32675208 Ry

     iteration # 14     ecut=    40.00 Ry     beta= 0.70

     total cpu time spent up to now is      130.9 secs

     total energy              =   -5128.14960991 Ry
     estimated scf accuracy    <       0.00000007 Ry
 
     Band energy sum           =     128.32716603 Ry

     iteration # 15     ecut=    40.00 Ry     beta= 0.70

     total cpu time spent up to now is      136.5 secs

     total energy              =   -5128.14960992 Ry
     estimated scf accuracy    <       0.00000007 Ry
 
     Band energy sum           =     128.32664791 Ry

     iteration # 16     ecut=    40.00 Ry     beta= 0.70

     total cpu time spent up to now is      141.0 secs

     total energy              =   -5128.14960992 Ry
     estimated scf accuracy    <       0.00000001 Ry
 
     Band energy sum           =     128.32670891 Ry

     iteration # 17     ecut=    40.00 Ry     beta= 0.70

     total cpu time spent up to now is      144.5 secs

     total energy              =   -5128.14960992 Ry
     estimated scf accuracy    <          9.7E-10 Ry
 
     Band energy sum           =     128.32673568 Ry

     iteration # 18     ecut=    40.00 Ry     beta= 0.70

     total cpu time spent up to now is      148.1 secs

     total energy              =   -5128.14960992 Ry
     estimated scf accuracy    <          4.2E-10 Ry
 
     Band energy sum           =     128.32670988 Ry

     iteration # 19     ecut=    40.00 Ry     beta= 0.70

     total cpu time spent up to now is      152.7 secs

     total energy              =   -5128.14960992 Ry
     estimated scf accuracy    <          2.8E-10 Ry
 
     Band energy sum           =     128.32668238 Ry

     iteration # 20     ecut=    40.00 Ry     beta= 0.70

     total cpu time spent up to now is      156.2 secs

     End of self-consistent calculation

          k = 0.0000 0.0000 0.0000 (147954 PWs)   bands (ev):

   -18.3118 -18.3118 -18.3118 -18.2816 -18.2816  -5.9524  -5.7031  -5.6750
    -5.6750  -5.6750  -5.6749  -5.6749  -5.4554  -5.4078  -5.4078  -5.4078
    -5.4075  -5.4075  -5.4075  -5.4075  -5.4075  -5.4075  -5.4075  -5.4075
    -5.1772  -5.1482  -5.1482  -5.1482  -5.1480  -5.1479  -5.1479  -5.1479
    -4.8936  -4.8663  -4.8663  -4.8663  -4.8661  -4.8661  -4.7049  -4.6194
    -4.6194  -4.6194  -4.6184  -4.6184  -4.6184  -4.6184  -4.6184  -4.6184
    -4.6184  -4.6184  -4.6183  -4.6183  -4.6183  -4.6183  -4.6183  -4.6183
    -4.6183  -4.6183  -4.6183  -4.6182  -4.6182  -4.6182  -4.4473  -4.3916
    -4.3916  -4.3916  -4.3906  -4.3906  -4.3906  -4.3906  -4.3906  -4.3906
    -4.3906  -4.3906  -4.3906  -4.3905  -4.3905  -4.3905  -4.3905  -4.3905
    -4.3905  -4.3905  -4.3905  -4.3905  -4.3905  -4.3905  -3.9577  -3.9036
    -3.9036  -3.9036  -3.9030  -3.9030  -3.9030  -3.9030  -3.9030  -3.9030
    -3.9030  -3.9030  -3.8270  -3.7725  -3.7725  -3.7725  -3.7717  -3.7717
    -3.7717  -3.7717  -3.7717  -3.7717  -3.7717  -3.7717  -3.7717  -3.7717
    -3.7717  -3.7717  -3.7717  -3.7717  -3.7717  -3.7717  -3.7717  -3.7716
    -3.7716  -3.7716  -3.6233  -3.6112  -3.6112  -3.6112  -3.5672  -3.5545
    -3.5545  -3.5545  -3.5541  -3.5541  -3.4198  -3.3561  -3.3561  -3.3561
    -3.3547  -3.3547  -3.3547  -3.3547  -3.3547  -3.3547  -3.3547  -3.3547
    -3.3547  -3.3547  -3.3546  -3.3546  -3.3546  -3.3546  -3.3546  -3.3546
    -3.3546  -3.3546  -3.3546  -3.3546  -3.2676  -3.2293  -3.2293  -3.2293
    -3.2282  -3.2282  -3.2282  -3.2282  -3.2282  -3.2282  -3.2282  -3.2282
    -3.2282  -3.2282  -3.2282  -3.2282  -3.2281  -3.2281  -3.2281  -3.2281
    -3.2281  -3.2281  -3.2281  -3.2281  -3.1096  -3.0742  -3.0742  -3.0742
    -3.0737  -3.0737  -3.0737  -3.0737  -3.0737  -3.0736  -3.0736  -3.0736
    -3.0736  -3.0736  -3.0736  -3.0736  -3.0736  -3.0736  -3.0736  -3.0736
    -3.0736  -3.0736  -3.0736  -3.0736  -2.8640  -2.8294  -2.8294  -2.8294
    -2.8286  -2.8286  -2.8286  -2.8284  -2.8284  -2.8284  -2.8284  -2.8284
    -2.8284  -2.8284  -2.8284  -2.8284  -2.8284  -2.8284  -2.8284  -2.8284
    -2.8284  -2.8284  -2.8284  -2.8284  -2.2393  -2.2149  -2.2149  -2.2149
    -2.2147  -2.2147  -2.2147  -2.2146  -2.2146  -2.2146  -2.2145  -2.2145
    -1.8283  -1.8062  -1.8062  -1.8062  -1.8058  -1.8058  -1.7666  -1.7277
    -1.7277  -1.7277  -1.7265  -1.7265  -1.7265  -1.7265  -1.7265  -1.7265
    -1.7264  -1.7264  -1.7264  -1.7264  -1.7264  -1.7264  -1.7264  -1.7264
    -1.7264  -1.7264  -1.7264  -1.7264  -1.7264  -1.7264  -1.6529  -1.6393
    -1.6393  -1.6393  -1.6390  -1.6390  -1.6390  -1.6389  -1.6389  -1.6389
    -1.6389  -1.6389  -1.2379  -1.2183  -1.2183  -1.2183  -1.2177  -1.2177
    -1.2177  -1.2176  -1.2176  -1.2176  -1.2176  -1.2176  -0.9823  -0.9786
    -0.9786  -0.9786  -0.8216  -0.7900  -0.7900  -0.7900  -0.7875  -0.7875
    -0.7875  -0.7875  -0.7875  -0.7874  -0.7874  -0.7874  -0.7874  -0.7874
    -0.7874  -0.7874  -0.7874  -0.7874  -0.7874  -0.7874  -0.7874  -0.7873
    -0.7873  -0.7873  -0.6022  -0.5614  -0.5614  -0.5614  -0.5605  -0.5605
    -0.5605  -0.5604  -0.5604  -0.5604  -0.5604  -0.5604  -0.5603  -0.5603
    -0.5603  -0.5603  -0.5603  -0.5603  -0.5603  -0.5603  -0.5603  -0.5602
    -0.5602  -0.5602  -0.4238  -0.3853  -0.3853  -0.3853  -0.3818  -0.3817
    -0.3817  -0.3817  -0.3816  -0.3816  -0.3816  -0.3816  -0.3816  -0.3816
    -0.3816  -0.3816  -0.3816  -0.3816  -0.3816  -0.3816  -0.3816  -0.3814
    -0.3814  -0.3814  -0.3804  -0.3795  -0.3795  -0.3795  -0.3790  -0.3790
    -0.3790  -0.3789  -0.3789  -0.3789  -0.3789  -0.3789  -0.3789  -0.3789
    -0.3789  -0.3789  -0.3788  -0.3788  -0.3788  -0.3788  -0.3788  -0.3786
    -0.3786  -0.3786   0.0115   0.0435   0.0435   0.0435   0.0440   0.0440
     0.0440   0.0441   0.0441   0.0441   0.0441   0.0441   0.0441   0.0441
     0.0441   0.0441   0.0441   0.0441   0.0441   0.0441   0.0441   0.0443
     0.0443   0.0443   0.2541   0.2616   0.2616   0.2616   0.2617   0.2617
     0.5091   0.5232   0.5232   0.5232   0.5236   0.5236   0.5236   0.5238
     0.5238   0.5241   0.5241   0.5241   0.6933   0.7110   0.7110   0.7110
     0.7127   0.7129   0.7129   0.7129   0.7129   0.7129   0.7129   0.7129
     0.7129   0.7129   0.7129   0.7129   0.7129   0.7129   0.7129   0.7130
     0.7130   0.7137   0.7137   0.7137   1.6829   1.6829   1.6829   1.6833
     1.6844   1.6844   1.6844   1.6844   1.6844   1.6844   1.6845   1.6847
     1.6847   1.7116   1.7116   1.7116   1.7122   1.7122   1.7122   1.7122
     1.7122   1.7123   1.7123   1.7123   1.7123   1.7123   1.7123   1.7123
     1.7123   1.7123   1.7123   1.7124   1.7124   1.7136   1.7136   1.7136
     1.7565   1.7565   1.7565   1.7583   1.7591   1.7591   1.7591   1.7591
     1.7591   1.7591   1.7592   1.7592   1.7592   1.7592   1.7592   1.7592
     1.7592   1.7592   1.7593   1.7594   1.7594   1.7594   1.7597   1.7597
     2.0631   2.0687   2.0687   2.0687   2.0691   2.0697   2.0697   2.0697
     2.1363   2.1363   2.1363   2.1374   2.1374   2.1374   2.1375   2.1375
     2.1375   2.1375   2.1379   2.1379   2.2349   2.2352   2.2352   2.2352
     2.2363   2.2363   2.2363   2.2366   2.2366   2.2367   2.2367   2.2367
     2.4507   2.4560   2.4560   2.4560   2.4578   2.4578   2.4578   2.4578
     2.4578   2.4578   2.4579   2.4579   2.4579   2.4579   2.4579   2.4579
     2.4579   2.4579   2.4579   2.4585   2.4585   2.4585   2.4586   2.4586
     2.4758   2.4824   2.4824   2.4828   2.4828   2.4828   2.5371   2.5418
     2.5418   2.5418   2.5433   2.5433   2.5433   2.5435   2.5435   2.5435
     2.5435   2.5435   2.5435   2.5435   2.5435   2.5435   2.5435   2.5435
     2.5435   2.5440   2.5440   2.5442   2.5442   2.5442   2.5798   2.5798
     2.5798   2.5811   2.5811   2.5811   2.5813   2.5817   2.5817   2.5817
     2.5817   2.5817   2.5817   2.5817   2.5817   2.5817   2.5817   2.5817
     2.5817   2.5820   2.5820   2.5820   2.5823   2.5823   2.6326   2.6326
     2.6326   2.6329   2.6340   2.6340   2.6340   2.6344   2.6344   2.6344
     2.6344   2.6344   2.6344   2.6345   2.6345   2.6345   2.6345   2.6345
     2.6346   2.6349   2.6349   2.6352   2.6352   2.6352   3.1619   3.1619
     3.1619   3.1619   3.1619   3.1619   3.2434   3.2434   3.2434   3.2442
     3.2442   3.2442   3.2446   3.2446   3.2446   3.2446   3.2447   3.2447
     3.2447   3.2447   3.2447   3.2448   3.2448   3.2448   3.2448   3.2453
     3.2453   3.2453   3.2456   3.2456   3.2813   3.2831   3.2831   3.2831
     3.2844   3.2844   3.2844   3.2846   3.2846   3.2846   3.2846   3.2846
     3.2846   3.2846   3.2846   3.2846   3.2846   3.2846   3.2847   3.2849
     3.2849   3.2861   3.2861   3.2861   3.3052   3.3146   3.3146   3.3146
     3.3148   3.3148   3.3148   3.3148   3.3148   3.3163   3.3163   3.3163
     3.4070   3.4070   3.4070   3.4071   3.4071   3.4071   3.4076   3.4076
     3.4076   3.4080   3.4080   3.4080   3.4184   3.4184   3.4184   3.4187
     3.4189   3.4189   3.4189   3.4193   3.4193   3.4193   3.4193   3.4194
     3.4194   3.4194   3.4194   3.4194   3.4194   3.4194   3.4194   3.4199
     3.4199   3.4199   3.4204   3.4204   3.5313   3.5370   3.5370   3.5370
     3.5374   3.5374   3.5374   3.5378   3.5378   3.5378   3.5378   3.5378
     3.5378   3.5378   3.5379   3.5379   3.5379   3.5379   3.5379   3.5383
     3.5383   3.5395   3.5395   3.5395   3.5894   3.5894   3.5894   3.5897
     3.5897   3.5897   3.5899   3.5899   3.5899   3.5899   3.5901   3.5901
     3.8092   3.8092   3.8092   3.8095   3.8095   3.8095   3.8100   3.8100
     3.8100   3.8100   3.8101   3.8101   3.8101   3.8101   3.8101   3.8101
     3.8101   3.8101   3.8101   3.8104   3.8104   3.8108   3.8108   3.8108
     3.8489   3.8489   3.8489   3.8489   3.8489   3.8489   3.8493   3.8494
     3.8494   3.8494   3.8494   3.8494   3.8494   3.8495   3.8495   3.8495
     3.8495   3.8495   3.8495   3.8503   3.8503   3.8503   3.8505   3.8505
     4.1233   4.1233   4.1233   4.1235   4.1235   4.1235   4.1237   4.1237
     4.1237   4.1247   4.1247   4.1247   4.1588   4.1659   4.1659   4.1659
     4.1661   4.1661   4.1661   4.1662   4.1663   4.1663   4.1663   4.1663
     4.1663   4.1664   4.1664   4.1664   4.1664   4.1664   4.1664   4.1669
     4.1669   4.1686   4.1686   4.1686   4.3734   4.3739   4.3739   4.3739
     4.3743   4.3743   4.3743   4.3744   4.3744   4.3758   4.3758   4.3758
     4.4280   4.4280   4.4280   4.4281   4.4281   4.4281   4.4286   4.4286
     4.4286   4.4286   4.4286   4.4286   4.4286   4.4286   4.4286   4.4286
     4.4286   4.4286   4.4287   4.4289   4.4289   4.4310   4.4310   4.4310
     4.5823   4.5837   4.5837   4.5837   4.5838   4.5838   4.5838   4.5839
     4.5839   4.5839   4.5840   4.5840   4.5840   4.5840   4.5840   4.5841
     4.5841   4.5841   4.5841   4.5848   4.5848   4.5864   4.5864   4.5864
     4.6579   4.6628   4.6628   4.6639   4.6639   4.6639   4.6889   4.6889
     4.6889   4.6892   4.6892   4.6892   4.6892   4.6896   4.6896   4.6901
     4.6901   4.6901   4.7513   4.7513   4.7513   4.7521   4.7521   4.7521
     4.7521   4.7521   4.7521   4.7521   4.7521   4.7521   4.7521   4.7521
     4.7521   4.7521   4.7521   4.7521   4.7521   4.7527   4.7527   4.7542
     4.7542   4.7542   4.8196   4.8196   4.8196   4.8200   4.8200   4.8207
     4.8207   4.8207   5.2067   5.2067   5.2067   5.2068   5.2068   5.2068
     5.2069   5.2069   5.2069   5.2091   5.2091   5.2091   5.2565   5.2565
     5.2565   5.2566   5.2566   5.2566   5.2567   5.2567   5.2568   5.2568
     5.2568   5.2569   5.2569   5.2598   5.2598   5.2598   5.7252   5.7252
     5.7252   5.7252   5.7252   5.7252   5.7253   5.7254   5.7254   5.7280
     5.7280   5.7280   6.0175   6.0175   6.0175   6.5317   6.5357   6.5357
     6.5362   6.5362   6.5362   6.6221   6.6262   6.6262   6.6262   6.6263
     6.6263   7.0584   7.0618   7.0618   7.0627   7.0627   7.0627   7.1172
     7.1229   7.1229   7.1229   7.1231   7.1231   7.1231   7.1257   7.1257
     7.1257   7.1261   7.1261   7.4214   7.4379   7.4379   7.4379   7.4407
     7.4442   7.4442   7.4442   7.4444   7.4445   7.4445   7.4445   7.4445
     7.4445   7.4446   7.4446   7.4446   7.4446   7.4446   7.4446   7.4447
     7.4447   7.4447   7.4492   7.4492   7.4495   7.4495   7.4495   7.4551
     7.4582   7.4582   7.4582   7.4599   7.4599   7.8673   7.8824   7.8824
     7.8824   7.8828   7.8828   7.8828   7.8829   7.8829   7.8829   7.8829
     7.8829   7.8829   7.8830   7.8830   7.8830   7.8835   7.8835   7.8835
     7.8854   7.8854   7.8870   7.8870   7.8870   7.8938   7.8996   7.8996
     7.8996   7.9000   7.9000   7.9000   7.9001   7.9001   7.9001   7.9001
     7.9001   7.9001   7.9001   7.9001   7.9001   7.9006   7.9006   7.9006
     7.9063   7.9063   7.9068   7.9068   7.9068   7.9289   7.9369   7.9374
     7.9374   7.9374   7.9397   7.9397   7.9397   7.9661   7.9673   7.9673
     7.9690   7.9690   7.9690   8.1630   8.1791   8.1796   8.1796   8.1796
     8.1797   8.1797   8.1797   8.1798   8.1798   8.1798   8.1798   8.1798
     8.1799   8.1799   8.1799   8.1804   8.1804   8.1804   8.1836   8.1836
     8.1853   8.1853   8.1853   8.2636   8.2846   8.2846   8.2846   8.2848
     8.2848   8.2848   8.2849   8.2849   8.2849   8.2849   8.2849   8.2849
     8.2849   8.2849   8.2849   8.2853   8.2853   8.2853   8.2874   8.2874
     8.2908   8.2908   8.2908   8.3765   8.3829   8.3829   8.3829   8.3833
     8.3833   8.3833   8.3850   8.3850   8.3850   8.3856   8.3856   8.3907
     8.3937   8.3938   8.3938   8.3940   8.3940   8.3940   8.3941   8.3941
     8.3941   8.3942   8.3942   8.3950   8.3950   8.3950   8.3965   8.3966
     8.4027   8.4027   8.4027

     the Fermi energy is     6.3386 ev

!    total energy              =   -5128.14960992 Ry
     estimated scf accuracy    <          7.7E-11 Ry
     smearing contrib. (-TS)   =      -0.00000000 Ry
     internal energy E=F+TS    =   -5128.14960992 Ry

     The total energy is F=E-TS. E is the sum of the following terms:
     one-electron contribution =    1072.71931766 Ry
     hartree contribution      =     404.47263190 Ry
     xc contribution           =   -2256.46259376 Ry
     ewald contribution        =   -4348.87896573 Ry
 
     Band energy sum           =     128.32668437 Ry

     convergence has been achieved in  20 iterations
 
     evp_work_count :  1641.313102
 
     init_run     :     83.98s CPU     15.16s WALL (       1 calls)
     electrons    :   1273.80s CPU    140.67s WALL (       1 calls)

     Called by init_run:
     potinit      :      7.31s CPU      0.68s WALL (       1 calls)
     hinit0       :     10.42s CPU      0.87s WALL (       1 calls)

     Called by electrons:
     c_bands      :    808.10s CPU     96.45s WALL (      21 calls)
     sum_band     :    232.50s CPU     20.96s WALL (      21 calls)
     v_of_rho     :     25.07s CPU      2.14s WALL (      21 calls)
     mix_rho      :     25.02s CPU      2.21s WALL (      21 calls)

     Called by c_bands:

     Called by sum_band:

     Called by *egterg:

     Called by h_psi:

     General routines
     fft          :     46.61s CPU      3.93s WALL (     125 calls)
     ffts         :      1.46s CPU      0.13s WALL (      21 calls)
     interpolate  :     12.23s CPU      1.04s WALL (      21 calls)
 
     Parallel routines
     fft_scatt_xy :      2.85s CPU      0.25s WALL (     146 calls)
     fft_scatt_yz :     35.01s CPU      2.99s WALL (     146 calls)
 
     PWSCF        :  22m46.76s CPU   2m39.81s WALL

 
   This run was terminated on:  15:20:49  10Mar2020            

=------------------------------------------------------------------------------=
   JOB DONE.
=------------------------------------------------------------------------------=
==========================================================================================================================================================
                                                                           #         Total          %   Parent %        Median           Min           Max
----------------------------------------------------------------------------------------------------------------------------------------------------------
sirius                                                                     1      160.66 s     100.00     100.00      160.66 s      160.66 s      160.66 s
 |- sirius::initialize                                                     1     681.04 ms       0.42       0.42     681.04 ms     681.04 ms     681.04 ms
 |- qe|setup                                                               1      86.80 ms       0.05       0.05      86.80 ms      86.80 ms      86.80 ms
 |- qe|init_run                                                            1       15.16 s       9.44       9.44       15.16 s       15.16 s       15.16 s
 | |- qe|init_run|setup_sirius                                             1        7.89 s       4.91      52.05        7.89 s        7.89 s        7.89 s
 | | |- sirius::Simulation_context::initialize                             1        7.15 s       4.45      90.60        7.15 s        7.15 s        7.15 s
 | | | |- sirius::Simulation_context::init_comm                            1       2.49 ms       0.00       0.03       2.49 ms       2.49 ms       2.49 ms
 | | | |- sirius::Unit_cell::initialize                                    1     172.64 ms       0.11       2.41     172.64 ms     172.64 ms     172.64 ms
 | | | | |- sirius::Atom_type::init                                        2      35.98 us       0.00       0.02      17.99 us       3.61 us      32.37 us
 | | | | |- sirius::Unit_cell::update                                      1     172.20 ms       0.11      99.75     172.20 ms     172.20 ms     172.20 ms
 | | | | | |- sirius::Unit_cell::find_nearest_neighbours                   1     163.00 ms       0.10      94.66     163.00 ms     163.00 ms     163.00 ms
 | | | | | |- sirius::Unit_cell::get_symmetry                              1       9.13 ms       0.01       5.30       9.13 ms       9.13 ms       9.13 ms
 | | | | | | |- sirius::Unit_cell_symmetry                                 1       5.09 ms       0.00      55.79       5.09 ms       5.09 ms       5.09 ms
 | | | | | | | |- sirius::Unit_cell_symmetry|spg                           1     951.00 ns       0.00       0.02     951.00 ns     951.00 ns     951.00 ns
 | | | | | | | |- sirius::Unit_cell_symmetry|equiv                         1       5.04 ms       0.00      99.00       5.04 ms       5.04 ms       5.04 ms
 | | | | | | | |- sirius::Unit_cell_symmetry|mag                           1      19.84 us       0.00       0.39      19.84 us      19.84 us      19.84 us
 | | | |
 | | | |- sirius::Simulation_context::update                               1        6.98 s       4.34      97.55        6.98 s        6.98 s        6.98 s
 | | | | |- sirius::Unit_cell::update                                      1     170.99 ms       0.11       2.45     170.99 ms     170.99 ms     170.99 ms
 | | | | | |- sirius::Unit_cell::find_nearest_neighbours                   1     162.08 ms       0.10      94.79     162.08 ms     162.08 ms     162.08 ms
 | | | | | |- sirius::Unit_cell::get_symmetry                              1       8.86 ms       0.01       5.18       8.86 ms       8.86 ms       8.86 ms
 | | | | | | |- sirius::Unit_cell_symmetry                                 1       5.07 ms       0.00      57.17       5.07 ms       5.07 ms       5.07 ms
 | | | | | | | |- sirius::Unit_cell_symmetry|spg                           1     569.00 ns       0.00       0.01     569.00 ns     569.00 ns     569.00 ns
 | | | | | | | |- sirius::Unit_cell_symmetry|equiv                         1       5.04 ms       0.00      99.49       5.04 ms       5.04 ms       5.04 ms
 | | | | | | | |- sirius::Unit_cell_symmetry|mag                           1      17.63 us       0.00       0.35      17.63 us      17.63 us      17.63 us
 | | | | |
 | | | | |- sirius::Radial_integrals|rho_core_pseudo                       2       1.53 us       0.00       0.00     767.00 ns     237.00 ns       1.30 us
 | | | | |- sirius::Radial_integrals|rho_pseudo                            1      71.96 ms       0.04       1.03      71.96 ms      71.96 ms      71.96 ms
 | | | | |- sirius::Radial_integrals|vloc                                  2       1.65 us       0.00       0.00     826.00 ns     268.00 ns       1.38 us
 | | | | |- sirius::Radial_integrals|atomic_wfs                            4      88.23 ms       0.05       1.26      18.98 ms       3.31 us      50.26 ms
 | | | | |- sddk::Gvec::init                                               2        2.90 s       1.80      41.57        1.45 s     354.54 ms        2.54 s
 | | | | | |- sddk::Gvec::find_gvec_shells                                 2        2.39 s       1.49      82.46        1.20 s     289.29 ms        2.10 s
 | | | | |
 | | | | |- sddk::Gvec_shells                                              1     405.58 ms       0.25       5.81     405.58 ms     405.58 ms     405.58 ms
 | | | | |- sirius::Simulation_context::init_atoms_to_grid_idx             1      12.17 ms       0.01       0.17      12.17 ms      12.17 ms      12.17 ms
 | | | | |- sirius::Augmentation_operator::generate_pw_coeffs              2        2.06 s       1.28      29.57        1.03 s        1.02 s        1.04 s
 | | | | | |- sirius::Augmentation_operator::generate_pw_coeffs|1          2       9.52 ms       0.01       0.46       4.76 ms       2.51 ms       7.01 ms
 | | | | | |- sirius::Augmentation_operator::generate_pw_coeffs|2          2        1.28 s       0.79      61.91     638.50 ms     636.94 ms     640.05 ms
 | | | | | | |- sirius::Augmentation_operator::generate_pw_coeffs|gpu      2        1.27 s       0.79      99.30     634.00 ms     633.36 ms     634.64 ms
 | | |
 | | |- sirius::K_point_set::add_kpoints                                   1      16.57 us       0.00       0.00      16.57 us      16.57 us      16.57 us
 | | | |- sirius::K_point_set::add_kpoint                                  1      14.56 us       0.00      87.89      14.56 us      14.56 us      14.56 us
 | | | | |- sirius::K_point::K_point                                       1       2.76 us       0.00      18.96       2.76 us       2.76 us       2.76 us
 | | |
 | | |- sirius::Smooth_periodic_function                                   2      18.51 ms       0.01       0.23       9.26 ms       9.13 ms       9.38 ms
 | | |- sirius::Potential                                                  1      58.38 ms       0.04       0.74      58.38 ms      58.38 ms      58.38 ms
 | | | |- sirius::Smooth_periodic_function                                 6      56.25 ms       0.04      96.35       9.37 ms       9.37 ms       9.39 ms
 | | | |- sirius::Potential::update                                        1       1.26 ms       0.00       2.16       1.26 ms       1.26 ms       1.26 ms
 | | |
 | | |- sirius::Density                                                    1      34.91 ms       0.02       0.44      34.91 ms      34.91 ms      34.91 ms
 | | | |- sirius::Smooth_periodic_function                                 2      33.19 ms       0.02      95.08      16.60 ms       9.37 ms      23.82 ms
 | | | |- sirius::Density::update                                          1     750.47 us       0.00       2.15     750.47 us     750.47 us     750.47 us
 | |
 | |- qe|init_vloc                                                         1     105.05 ms       0.07       0.69     105.05 ms     105.05 ms     105.05 ms
 | |- qe|init_run|hinit0|init_us_1                                         1     689.00 ns       0.00       0.00     689.00 ns     689.00 ns     689.00 ns
 | |- qe|init_run|hinit0|init_at_1                                         1       5.04 ms       0.00       0.03       5.04 ms       5.04 ms       5.04 ms
 | |- qe|setlocal                                                          1      89.81 ms       0.06       0.59      89.81 ms      89.81 ms      89.81 ms
 | |- qe|set_rhoc                                                          1      84.12 ms       0.05       0.55      84.12 ms      84.12 ms      84.12 ms
 | |- qe|potinit                                                           1     684.72 ms       0.43       4.52     684.72 ms     684.72 ms     684.72 ms
 | | |- qe|atomic_rho_g                                                    1       7.26 ms       0.00       1.06       7.26 ms       7.26 ms       7.26 ms
 | | | |- sirius_api::sirius_get_pw_coeffs_real                            2       3.47 ms       0.00      47.81       1.74 ms       1.63 ms       1.84 ms
 | | |
 | | |- qe|paw_becsum                                                      1     286.00 ns       0.00       0.00     286.00 ns     286.00 ns     286.00 ns
 | | |- sirius_api::sirius_set_pw_coeffs                                   1     442.69 ms       0.28      64.65     442.69 ms     442.69 ms     442.69 ms
 | | | |- sirius::Smooth_periodic_function::fft_transform                  1      17.58 ms       0.01       3.97      17.58 ms      17.58 ms      17.58 ms
 | | |
 | | |- qe|paw_potential                                                   1       1.24 us       0.00       0.00       1.24 us       1.24 us       1.24 us
 | | |- qe|set_vrs                                                         1      55.16 ms       0.03       8.06      55.16 ms      55.16 ms      55.16 ms
 | |
 | |- qe|newd                                                              1     323.92 ms       0.20       2.14     323.92 ms     323.92 ms     323.92 ms
 | | |- sirius::Potential::generate_D_operator_matrix                      1     322.02 ms       0.20      99.41     322.02 ms     322.02 ms     322.02 ms
 | |
 | |- sirius::K_point_set::initialize                                      1      28.52 ms       0.02       0.19      28.52 ms      28.52 ms      28.52 ms
 | | |- sirius::K_point::initialize                                        1      28.50 ms       0.02      99.96      28.50 ms      28.50 ms      28.50 ms
 | | | |- sirius::K_point::generate_gkvec                                  1      24.95 ms       0.02      87.54      24.95 ms      24.95 ms      24.95 ms
 | | | | |- sddk::Gvec::init                                               1       9.22 ms       0.01      36.96       9.22 ms       9.22 ms       9.22 ms
 | | | |
 | | | |- sddk::matrix_storage::matrix_storage                             1      10.38 us       0.00       0.04      10.38 us      10.38 us      10.38 us
 | | | |- sirius::K_point::update                                          1       2.38 ms       0.00       8.34       2.38 ms       2.38 ms       2.38 ms
 | | | | |- sirius::Beta_projectors                                        1       1.64 ms       0.00      69.11       1.64 ms       1.64 ms       1.64 ms
 | | | | | |- sirius::Beta_projectors::generate_pw_coefs_t                 1     938.35 us       0.00      57.09     938.35 us     938.35 us     938.35 us
 | |
 | |- sirius::Hamiltonian0                                                 1      49.48 ms       0.03       0.33      49.48 ms      49.48 ms      49.48 ms
 | | |- sirius::Local_operator                                             1      47.19 ms       0.03      95.37      47.19 ms      47.19 ms      47.19 ms
 | | | |- sirius::Smooth_periodic_function                                 1      26.04 ms       0.02      55.19      26.04 ms      26.04 ms      26.04 ms
 | | | |- sirius::Smooth_periodic_function::fft_transform                  1      14.39 ms       0.01      30.48      14.39 ms      14.39 ms      14.39 ms
 | | |
 | | |- sirius::Non_local_operator                                         2     138.08 us       0.00       0.28      69.04 us      58.21 us      79.87 us
 | | |- sirius::D_operator::initialize                                     1     625.41 us       0.00       1.26     625.41 us     625.41 us     625.41 us
 | | |- sirius::Q_operator::initialize                                     1     414.93 us       0.00       0.84     414.93 us     414.93 us     414.93 us
 | |
 | |- sirius::Band::initialize_subspace                                    1        2.81 s       1.75      18.56        2.81 s        2.81 s        2.81 s
 | | |- sirius::Hamiltonian_k                                              1     439.14 us       0.00       0.02     439.14 us     439.14 us     439.14 us
 | | | |- sirius::Local_operator::prepare_k                                1     429.70 us       0.00      97.85     429.70 us     429.70 us     429.70 us
 | | | |- sirius::Beta_projectors_base::prepare                            1       4.43 us       0.00       1.01       4.43 us       4.43 us       4.43 us
 | | |
 | | |- sirius::Band::initialize_subspace|kp                               1        2.81 s       1.75      99.98        2.81 s        2.81 s        2.81 s
 | | | |- sddk::matrix_storage::matrix_storage                             4     292.25 ms       0.18      10.38      72.57 ms      70.77 ms      76.34 ms
 | | | |- sirius::Band::initialize_subspace|kp|wf                          1     120.42 ms       0.07       4.28     120.42 ms     120.42 ms     120.42 ms
 | | | | |- sirius::K_point::generate_atomic_wave_functions                1      97.84 ms       0.06      81.25      97.84 ms      97.84 ms      97.84 ms
 | | | |
 | | | |- sirius::Hamiltonian_k::apply_h_s                                 1        1.72 s       1.07      61.13        1.72 s        1.72 s        1.72 s
 | | | | |- sirius::Local_operator::apply_h                                1     899.75 ms       0.56      52.30     899.75 ms     899.75 ms     899.75 ms
 | | | | | |- sddk::matrix_storage::remap_forward                          1     272.09 ms       0.17      30.24     272.09 ms     272.09 ms     272.09 ms
 | | | | | | |- sddk::matrix_storage::set_num_extra                        1     134.53 ms       0.08      49.44     134.53 ms     134.53 ms     134.53 ms
 | | | | | | | |- sddk::matrix_storage::set_num_extra|alloc                1     134.53 ms       0.08     100.00     134.53 ms     134.53 ms     134.53 ms
 | | | | | | |
 | | | | | | |- sddk::matrix_storage::remap_forward|mpi                    1     125.02 ms       0.08      45.95     125.02 ms     125.02 ms     125.02 ms
 | | | | | |
 | | | | | |- sddk::matrix_storage::set_num_extra                          1     146.62 ms       0.09      16.30     146.62 ms     146.62 ms     146.62 ms
 | | | | | | |- sddk::matrix_storage::set_num_extra|alloc                  1     146.61 ms       0.09     100.00     146.61 ms     146.61 ms     146.61 ms
 | | | | | |
 | | | | | |- sddk::matrix_storage::remap_backward                         1     126.53 ms       0.08      14.06     126.53 ms     126.53 ms     126.53 ms
 | | | | | | |- sddk::matrix_storage::remap_backward|mpi                   1      89.62 ms       0.06      70.83      89.62 ms      89.62 ms      89.62 ms
 | | | | |
 | | | | |- sirius::Beta_projectors_base::generate                         2       5.57 ms       0.00       0.32       2.79 ms       2.23 ms       3.34 ms
 | | | | |- sirius::Beta_projectors_base::inner                            2     490.60 ms       0.31      28.52     245.30 ms     237.88 ms     252.72 ms
 | | | | | |- sirius::Beta_projectors_base::inner|comm                     2     188.50 ms       0.12      38.42      94.25 ms      92.67 ms      95.83 ms
 | | | | |
 | | | | |- sirius::Non_local_operator::apply                              4     324.31 ms       0.20      18.85      81.06 ms      80.96 ms      81.23 ms
 | | | |
 | | | |- sirius::Band::set_subspace_mtrx                                  2     247.08 ms       0.15       8.78     123.54 ms     107.55 ms     139.53 ms
 | | | | |- sddk::inner                                                    2     246.64 ms       0.15      99.82     123.32 ms     107.34 ms     139.31 ms
 | | | | | |- sddk::inner|local                                            2      57.41 us       0.00       0.02      28.71 us      18.01 us      39.40 us
 | | | | | |- sddk::inner|device_copy                                      4     119.60 ms       0.07      48.49      29.65 ms       2.79 ms      57.51 ms
 | | | | | |- sddk::inner|store                                            4      10.09 ms       0.01       4.09       2.52 ms       1.96 ms       3.08 ms
 | | | | | |- sddk::inner|mpi                                              2     116.01 ms       0.07      47.03      58.00 ms      41.51 ms      74.50 ms
 | | | |
 | | | |- Eigensolver_cuda|dsygvd                                          1     257.00 ms       0.16       9.13     257.00 ms     257.00 ms     257.00 ms
 | | | |- sddk::transform                                                  1      23.66 ms       0.01       0.84      23.66 ms      23.66 ms      23.66 ms
 | | | | |- sddk::transform|init                                           1      16.61 us       0.00       0.07      16.61 us      16.61 us      16.61 us
 | | | | |- sddk::transform|local                                          1      19.85 us       0.00       0.08      19.85 us      19.85 us      19.85 us
 | | |
 | | |- sirius::Beta_projectors_base::dismiss                              1     576.00 ns       0.00       0.00     576.00 ns     576.00 ns     576.00 ns
 |
 |- qe|electrons                                                           1      140.67 s      87.56      87.56      140.67 s      140.67 s      140.67 s
 | |- sirius::Hamiltonian0                                                21     632.78 ms       0.39       0.45      27.16 ms      26.56 ms      73.05 ms
 | | |- sirius::Local_operator                                            21     606.57 ms       0.38      95.86      25.89 ms      25.32 ms      71.82 ms
 | | | |- sirius::Smooth_periodic_function                                21     108.61 ms       0.07      17.90       4.84 ms       4.83 ms      11.14 ms
 | | | |- sirius::Smooth_periodic_function::fft_transform                 21     358.32 ms       0.22      59.07      14.34 ms      13.82 ms      60.34 ms
 | | |
 | | |- sirius::Non_local_operator                                        42       3.17 ms       0.00       0.50      76.64 us      66.68 us      83.67 us
 | | |- sirius::D_operator::initialize                                    21       7.45 ms       0.00       1.18     353.16 us     350.03 us     383.68 us
 | | |- sirius::Q_operator::initialize                                    21      11.32 ms       0.01       1.79     537.80 us     531.67 us     561.09 us
 | |
 | |- sirius::Band::solve                                                 21       95.81 s      59.64      68.11        3.55 s        1.29 s       16.38 s
 | | |- sirius::Hamiltonian_k                                             21       8.34 ms       0.01       0.01     395.04 us     384.88 us     445.55 us
 | | | |- sirius::Local_operator::prepare_k                               21       8.18 ms       0.01      98.16     387.99 us     378.13 us     437.99 us
 | | | |- sirius::Beta_projectors_base::prepare                           21      99.31 us       0.00       1.19       4.72 us       4.25 us       5.20 us
 | | |
 | | |- sirius::Band::diag_pseudo_potential_davidson                      21       95.80 s      59.63      99.99        3.55 s        1.29 s       16.38 s
 | | | |- sirius::Band::diag_pseudo_potential_davidson|alloc              21        1.52 s       0.95       1.59      18.54 ms      18.50 ms        1.15 s
 | | | | |- sddk::matrix_storage::matrix_storage                         126     910.03 ms       0.57      59.92     416.00 ns     256.00 ns     869.60 ms
 | | | |
 | | | |- sirius::Hamiltonian_k::get_h_o_diag                             21     337.83 ms       0.21       0.35      16.03 ms      16.00 ms      17.03 ms
 | | | |- sirius::Band::diag_pseudo_potential_davidson|iter               21       93.64 s      58.29      97.75        3.50 s        1.24 s       16.33 s
 | | | | |- sirius::Hamiltonian_k::apply_h_s                             103       39.80 s      24.77      42.50     197.08 ms      25.97 ms        1.11 s
 | | | | | |- sirius::Local_operator::apply_h                            103       16.47 s      10.25      41.37      78.52 ms       7.21 ms     611.44 ms
 | | | | | | |- sddk::matrix_storage::remap_forward                      103        3.31 s       2.06      20.10      14.62 ms       3.92 ms     264.74 ms
 | | | | | | | |- sddk::matrix_storage::set_num_extra                    103      89.16 ms       0.06       2.69       2.84 us       2.33 us      88.77 ms
 | | | | | | | | |- sddk::matrix_storage::set_num_extra|alloc             21      88.88 ms       0.06      99.69       5.64 us       4.71 us      88.77 ms
 | | | | | | | |
 | | | | | | | |- sddk::matrix_storage::remap_forward|mpi                103        2.86 s       1.78      86.49      12.81 ms       3.63 ms     257.13 ms
 | | | | | | |
 | | | | | | |- sddk::matrix_storage::set_num_extra                      103      89.19 ms       0.06       0.54       3.79 us       1.27 us      88.72 ms
 | | | | | | | |- sddk::matrix_storage::set_num_extra|alloc               21      88.89 ms       0.06      99.67       8.97 us       7.10 us      88.72 ms
 | | | | | | |
 | | | | | | |- sddk::matrix_storage::remap_backward                     103        3.31 s       2.06      20.10      16.83 ms     758.77 us      96.04 ms
 | | | | | | | |- sddk::matrix_storage::remap_backward|mpi               103        2.29 s       1.43      69.33      12.12 ms     474.94 us      73.84 ms
 | | | | | |
 | | | | | |- sirius::Beta_projectors_base::generate                     206     483.55 ms       0.30       1.21       2.21 ms       2.17 ms       2.91 ms
 | | | | | |- sirius::Beta_projectors_base::inner                        206       13.10 s       8.15      32.91      28.71 ms       1.50 ms     308.51 ms
 | | | | | | |- sirius::Beta_projectors_base::inner|comm                 206        5.83 s       3.63      44.50      13.13 ms     199.90 us     228.77 ms
 | | | | | |
 | | | | | |- sirius::Non_local_operator::apply                          412        9.75 s       6.07      24.50      14.49 ms       2.52 ms      50.45 ms
 | | | | |
 | | | | |- sddk::orthogonalize                                          103        6.38 s       3.97       6.81      42.32 ms       2.07 ms     350.80 ms
 | | | | | |- sddk::inner                                                185        3.33 s       2.07      52.21       6.98 ms      64.51 us     224.07 ms
 | | | | | | |- sddk::inner|local                                        185       3.87 ms       0.00       0.12      20.71 us       8.17 us      49.09 us
 | | | | | | |- sddk::inner|device_copy                                  370        1.37 s       0.85      41.11     718.61 us       9.56 us      38.35 ms
 | | | | | | |- sddk::inner|store                                        370     104.68 ms       0.07       3.14      94.36 us       1.90 us       1.60 ms
 | | | | | | |- sddk::inner|mpi                                          185        1.85 s       1.15      55.60       2.68 ms      14.11 us     209.61 ms
 | | | | | |
 | | | | | |- sddk::orthogonalize|tmtrx                                  103     237.87 ms       0.15       3.73     501.62 us      19.35 us       9.02 ms
 | | | | | |- sddk::orthogonalize|transform                              103        1.12 s       0.70      17.62       2.87 ms      46.16 us      28.10 ms
 | | | | | |- sddk::transform                                             82        1.69 s       1.05      26.43      14.04 ms     967.93 us      78.37 ms
 | | | | | | |- sddk::transform|init                                      82       1.32 ms       0.00       0.08      14.26 us      12.36 us      25.54 us
 | | | | | | |- sddk::transform|local                                    246       2.27 ms       0.00       0.13       5.52 us       3.57 us      42.54 us
 | | | | |
 | | | | |- sirius::Band::set_subspace_mtrx                              103        3.84 s       2.39       4.10      30.54 ms       1.66 ms     166.93 ms
 | | | | | |- sddk::inner                                                103        3.09 s       1.92      80.38      21.36 ms     521.68 us     162.73 ms
 | | | | | | |- sddk::inner|local                                        103       4.28 ms       0.00       0.14      33.53 us      17.08 us      70.74 us
 | | | | | | |- sddk::inner|device_copy                                  206        1.48 s       0.92      47.85       1.53 ms      12.46 us      57.34 ms
 | | | | | | |- sddk::inner|store                                        206     107.75 ms       0.07       3.49     315.02 us       7.89 us       3.20 ms
 | | | | | | |- sddk::inner|mpi                                          103        1.50 s       0.93      48.46      10.02 ms      62.08 us     131.09 ms
 | | | | |
 | | | | |- sirius::Band::diag_pseudo_potential_davidson|evp             103       41.14 s      25.61      43.94     303.42 ms     103.23 ms        1.09 s
 | | | | | |- Eigensolver_cuda|dsyevd                                    103       41.14 s      25.61     100.00     303.42 ms     103.23 ms        1.09 s
 | | | | |
 | | | | |- sirius::residuals                                            103        1.84 s       1.14       1.96      13.32 ms      10.67 us      77.05 ms
 | | | | | |- sddk::transform                                             86        1.27 s       0.79      69.14      10.23 ms     736.52 us      52.62 ms
 | | | | | | |- sddk::transform|init                                      86       1.33 ms       0.00       0.10      15.04 us      12.69 us      21.16 us
 | | | | | | |- sddk::transform|local                                    172       2.80 ms       0.00       0.22      15.24 us       5.06 us      63.40 us
 | | | | | |
 | | | | | |- sirius::normalized_preconditioned_residuals                 86     461.35 ms       0.29      25.13       4.37 ms     856.70 us      51.20 ms
 | | | | |
 | | | | |- sirius::Band::diag_pseudo_potential_davidson|update_phi       21     636.83 ms       0.40       0.68      31.53 ms      14.57 ms      54.82 ms
 | | | | | |- sddk::transform                                             21     636.67 ms       0.40      99.97      31.53 ms      14.57 ms      54.81 ms
 | | | | | | |- sddk::transform|init                                      21     230.73 us       0.00       0.04      12.14 us       5.31 us      13.05 us
 | | | | | | |- sddk::transform|local                                     21     373.33 us       0.00       0.06      18.44 us       8.53 us      19.76 us
 | | |
 | | |- sirius::Beta_projectors_base::dismiss                             21      12.27 us       0.00       0.00     568.00 ns     457.00 ns     795.00 ns
 | | |- sirius::K_point_set::sync_band_energies                           21     352.91 us       0.00       0.00      17.03 us      15.75 us      18.12 us
 | |
 | |- qe|sum_band                                                         21       20.91 s      13.02      14.87     962.95 ms     936.34 ms        1.23 s
 | | |- sirius::Density::generate                                         21       17.02 s      10.59      81.36     795.55 ms     764.71 ms     999.47 ms
 | | | |- sirius::Density::generate_valence                               21       17.02 s      10.59     100.00     795.55 ms     764.71 ms     999.46 ms
 | | | | |- sddk::matrix_storage::remap_forward                           21        1.08 s       0.67       6.37      48.68 ms      43.24 ms      82.42 ms
 | | | | | |- sddk::matrix_storage::set_num_extra                         21     142.66 us       0.00       0.01       6.57 us       5.96 us      10.95 us
 | | | | | | |- sddk::matrix_storage::set_num_extra|alloc                  1       7.21 us       0.00       5.05       7.21 us       7.21 us       7.21 us
 | | | | | |
 | | | | | |- sddk::matrix_storage::remap_forward|mpi                     21     952.60 ms       0.59      87.90      42.54 ms      37.20 ms      76.27 ms
 | | | | |
 | | | | |- sirius::Density::add_k_point_contribution_dm                  21        5.25 s       3.27      30.85     238.03 ms     219.86 ms     406.58 ms
 | | | | | |- sirius::Beta_projectors_base::prepare                       21     223.23 us       0.00       0.00      10.70 us       9.99 us      11.65 us
 | | | | | |- sirius::Beta_projectors_base::generate                      42      93.65 ms       0.06       1.78       2.23 ms       2.19 ms       2.27 ms
 | | | | | |- sirius::Beta_projectors_base::inner                         42        5.13 s       3.19      97.64     115.70 ms     104.19 ms     270.24 ms
 | | | | | | |- sirius::Beta_projectors_base::inner|comm                  42        2.29 s       1.42      44.61      48.64 ms      35.17 ms     202.49 ms
 | | | | | |
 | | | | | |- sirius::Beta_projectors_base::dismiss                       21      11.15 us       0.00       0.00     502.00 ns     430.00 ns     903.00 ns
 | | | | |
 | | | | |- sirius::Density::add_k_point_contribution_rg                  21        2.09 s       1.30      12.25      98.62 ms      98.39 ms     113.69 ms
 | | | | |- sirius::Smooth_periodic_function::fft_transform               21     189.64 ms       0.12       1.11       9.03 ms       9.00 ms       9.06 ms
 | | | | |- sirius::Density::augment                                      21        6.60 s       4.11      38.78     314.23 ms     314.18 ms     314.29 ms
 | | | | | |- sirius::Density::generate_rho_aug                           21        6.59 s       4.10      99.87     313.83 ms     313.76 ms     313.88 ms
 | | |
 | | |- sirius_api::sirius_get_pw_coeffs                                  21        2.72 s       1.69      13.00     115.89 ms     114.79 ms     324.90 ms
 | | | |- sirius::Smooth_periodic_function::gather_f_pw                   21        1.99 s       1.24      73.21      81.21 ms      80.41 ms     292.48 ms
 | | |
 | | |- qe|sym_rho                                                        21      33.29 us       0.00       0.00       1.33 us       1.19 us       5.20 us
 | |
 | |- qe|mix                                                              21        2.21 s       1.37       1.57      88.23 ms     785.11 us     533.08 ms
 | |- sirius_api::sirius_set_pw_coeffs                                    20       10.00 s       6.23       7.11     501.74 ms     460.29 ms     546.27 ms
 | | |- sirius::Smooth_periodic_function::fft_transform                   20     189.96 ms       0.12       1.90       9.38 ms       8.99 ms      11.04 ms
 | |
 | |- qe|newd                                                             20        6.50 s       4.04       4.62     319.87 ms     319.63 ms     406.17 ms
 | | |- sirius::Potential::generate_D_operator_matrix                     20        6.46 s       4.02      99.53     318.33 ms     318.09 ms     404.64 ms
 |
 |- sirius_api::sirius_get_wave_functions                                  1        2.19 s       1.36       1.36        2.19 s        2.19 s        2.19 s
 | |- sddk::matrix_storage::matrix_storage                                 1      16.49 us       0.00       0.00      16.49 us      16.49 us      16.49 us
 |
 |- qe|ions                                                                1     407.46 ms       0.25       0.25     407.46 ms     407.46 ms     407.46 ms
 | |- sirius_api::sirius_set_pw_coeffs                                     1     405.89 ms       0.25      99.61     405.89 ms     405.89 ms     405.89 ms
 | | |- sirius::Smooth_periodic_function::fft_transform                    1      10.49 ms       0.01       2.58      10.49 ms      10.49 ms      10.49 ms
 |
 |- qe|punch                                                               1       1.12 us       0.00       0.00       1.12 us       1.12 us       1.12 us
 |- sirius::finalize                                                       1     111.22 ms       0.07       0.07     111.22 ms     111.22 ms     111.22 ms

==========================================================================================================================================================
 
Batch Job Summary Report for Job "test_scf" (20934930) on daint
-----------------------------------------------------------------------------------------------------
             Submit            Eligible               Start                 End    Elapsed  Timelimit 
------------------- ------------------- ------------------- ------------------- ---------- ---------- 
2020-03-10T15:12:34 2020-03-10T15:12:34 2020-03-10T15:17:17 2020-03-10T15:20:55   00:03:38   00:20:00 
-----------------------------------------------------------------------------------------------------
Username    Account     Partition   NNodes   Energy
----------  ----------  ----------  ------  --------------
antonk      csstaff     normal          16        0 joules
----------------------------------------------------------
gpusecs  maxgpusecs        maxmem            summem
-------  ----------  ------------  ----------------
   1458        1458    6083837952      105509814272
----------------------------------------------------------
Scratch File System        Files       Quota
--------------------  ----------  ----------
/scratch/snx3000            2651     1000000
 
