
     Program PWSCF v.6.2 starts on 14Nov2017 at 15:45:22 

     This program is part of the open-source Quantum ESPRESSO suite
     for quantum simulation of materials; please cite
         "P. Giannozzi et al., J. Phys.:Condens. Matter 21 395502 (2009);
         "P. Giannozzi et al., J. Phys.:Condens. Matter 29 465901 (2017);
          URL http://www.quantum-espresso.org", 
     in publications or presentations arising from this work. More details at
     http://www.quantum-espresso.org/quote

     Parallel version (MPI & OpenMP), running on      60 processor cores
     Number of MPI processes:                 5
     Threads/MPI process:                    12

     MPI processes distributed on     5 nodes
     K-points division:     npool     =       5
     Reading input from pw.in
     Message from routine read_cards :
     DEPRECATED: no units specified in CELL_PARAMETERS card
SIRIUS 4.10, git hash: 1860c229417ed8af1d8d9b2917528f9b0898187f

     Current dimensions of program PWSCF are:
     Max number of different atomic species (ntypx) = 10
     Max number of k-points (npk) =  40000
     Max angular momentum in pseudopotentials (lmaxx) =  3

     Subspace diagonalization in iterative solution of the eigenvalue problem:
     a serial algorithm will be used

 
     G-vector sticks info
     --------------------
     sticks:   dense  smooth     PW     G-vecs:    dense   smooth      PW
     Sum       10049    5377   1457               758657   295907   41851
 


     bravais-lattice index     =            0
     lattice parameter (alat)  =       1.0000  a.u.
     unit-cell volume          =    8646.7719 (a.u.)^3
     number of atoms/cell      =           64
     number of atomic types    =            2
     number of electrons       =       266.00
     number of Kohn-Sham states=          160
     kinetic-energy cutoff     =      40.0000  Ry
     charge density cutoff     =     300.0000  Ry
     convergence threshold     =      1.0E-10
     mixing beta               =       0.7000
     number of iterations used =            8  plain     mixing
     Exchange-correlation      = SLA  PZ   NOGX NOGC ( 1  1  0  0 0 0)
     nstep                     =          100


     celldm(1)=   1.000000  celldm(2)=   0.000000  celldm(3)=   0.000000
     celldm(4)=   0.000000  celldm(5)=   0.000000  celldm(6)=   0.000000

     crystal axes: (cart. coord. in units of alat)
               a(1) = (  20.525071   0.000000   0.000000 )  
               a(2) = (   0.000000  20.525071   0.000000 )  
               a(3) = (   0.000000   0.000000  20.525071 )  

     reciprocal axes: (cart. coord. in units 2 pi/alat)
               b(1) = (  0.048721  0.000000  0.000000 )  
               b(2) = (  0.000000  0.048721  0.000000 )  
               b(3) = (  0.000000  0.000000  0.048721 )  


     PseudoPot. # 1 for Ge read from file:
     ./ge_lda_v1.uspp.F.UPF
     MD5 check sum: 575f587c0f86b3eee266efe92ef02c15
     Pseudo is Ultrasoft + core correction, Zval = 14.0
     Generated by new atomic code, or converted to UPF format
     Using radial grid of  873 points,  6 beta functions with: 
                l(1) =   0
                l(2) =   0
                l(3) =   1
                l(4) =   1
                l(5) =   2
                l(6) =   2
     Q(r) pseudized with  8 coefficients,  rinner =    1.400   1.400   1.400
                                                       1.400   1.400

     PseudoPot. # 2 for Si read from file:
     ./si_lda_v1.uspp.F.UPF
     MD5 check sum: ca10e49b2835512e91ee5100d37237e0
     Pseudo is Ultrasoft + core correction, Zval =  4.0
     Generated by new atomic code, or converted to UPF format
     Using radial grid of  899 points,  6 beta functions with: 
                l(1) =   0
                l(2) =   0
                l(3) =   1
                l(4) =   1
                l(5) =   2
                l(6) =   2
     Q(r) pseudized with  8 coefficients,  rinner =    0.900   0.900   0.900
                                                       0.900   0.900

     atomic species   valence    mass     pseudopotential
        Ge            14.00    72.61000     Ge( 1.00)
        Si             4.00    28.08550     Si( 1.00)

     24 Sym. Ops. (no inversion) found


                                    s                        frac. trans.

      isym =  1     identity                                     

 cryst.   s( 1) = (     1          0          0      )
                  (     0          1          0      )
                  (     0          0          1      )

 cart.    s( 1) = (  1.0000000  0.0000000  0.0000000 )
                  (  0.0000000  1.0000000  0.0000000 )
                  (  0.0000000  0.0000000  1.0000000 )


      isym =  2     180 deg rotation - cart. axis [0,0,1]        

 cryst.   s( 2) = (    -1          0          0      )
                  (     0         -1          0      )
                  (     0          0          1      )

 cart.    s( 2) = ( -1.0000000  0.0000000  0.0000000 )
                  (  0.0000000 -1.0000000  0.0000000 )
                  (  0.0000000  0.0000000  1.0000000 )


      isym =  3     180 deg rotation - cart. axis [0,1,0]        

 cryst.   s( 3) = (    -1          0          0      )
                  (     0          1          0      )
                  (     0          0         -1      )

 cart.    s( 3) = ( -1.0000000  0.0000000  0.0000000 )
                  (  0.0000000  1.0000000  0.0000000 )
                  (  0.0000000  0.0000000 -1.0000000 )


      isym =  4     180 deg rotation - cart. axis [1,0,0]        

 cryst.   s( 4) = (     1          0          0      )
                  (     0         -1          0      )
                  (     0          0         -1      )

 cart.    s( 4) = (  1.0000000  0.0000000  0.0000000 )
                  (  0.0000000 -1.0000000  0.0000000 )
                  (  0.0000000  0.0000000 -1.0000000 )


      isym =  5     120 deg rotation - cart. axis [-1,-1,-1]     

 cryst.   s( 5) = (     0          0          1      )
                  (     1          0          0      )
                  (     0          1          0      )

 cart.    s( 5) = (  0.0000000  1.0000000  0.0000000 )
                  (  0.0000000  0.0000000  1.0000000 )
                  (  1.0000000  0.0000000  0.0000000 )


      isym =  6     120 deg rotation - cart. axis [-1,1,1]       

 cryst.   s( 6) = (     0          0         -1      )
                  (    -1          0          0      )
                  (     0          1          0      )

 cart.    s( 6) = (  0.0000000 -1.0000000  0.0000000 )
                  (  0.0000000  0.0000000  1.0000000 )
                  ( -1.0000000  0.0000000  0.0000000 )


      isym =  7     120 deg rotation - cart. axis [1,1,-1]       

 cryst.   s( 7) = (     0          0         -1      )
                  (     1          0          0      )
                  (     0         -1          0      )

 cart.    s( 7) = (  0.0000000  1.0000000  0.0000000 )
                  (  0.0000000  0.0000000 -1.0000000 )
                  ( -1.0000000  0.0000000  0.0000000 )


      isym =  8     120 deg rotation - cart. axis [1,-1,1]       

 cryst.   s( 8) = (     0          0          1      )
                  (    -1          0          0      )
                  (     0         -1          0      )

 cart.    s( 8) = (  0.0000000 -1.0000000  0.0000000 )
                  (  0.0000000  0.0000000 -1.0000000 )
                  (  1.0000000  0.0000000  0.0000000 )


      isym =  9     120 deg rotation - cart. axis [1,1,1]        

 cryst.   s( 9) = (     0          1          0      )
                  (     0          0          1      )
                  (     1          0          0      )

 cart.    s( 9) = (  0.0000000  0.0000000  1.0000000 )
                  (  1.0000000  0.0000000  0.0000000 )
                  (  0.0000000  1.0000000  0.0000000 )


      isym = 10     120 deg rotation - cart. axis [-1,1,-1]      

 cryst.   s(10) = (     0         -1          0      )
                  (     0          0         -1      )
                  (     1          0          0      )

 cart.    s(10) = (  0.0000000  0.0000000  1.0000000 )
                  ( -1.0000000  0.0000000  0.0000000 )
                  (  0.0000000 -1.0000000  0.0000000 )


      isym = 11     120 deg rotation - cart. axis [1,-1,-1]      

 cryst.   s(11) = (     0         -1          0      )
                  (     0          0          1      )
                  (    -1          0          0      )

 cart.    s(11) = (  0.0000000  0.0000000 -1.0000000 )
                  ( -1.0000000  0.0000000  0.0000000 )
                  (  0.0000000  1.0000000  0.0000000 )


      isym = 12     120 deg rotation - cart. axis [-1,-1,1]      

 cryst.   s(12) = (     0          1          0      )
                  (     0          0         -1      )
                  (    -1          0          0      )

 cart.    s(12) = (  0.0000000  0.0000000 -1.0000000 )
                  (  1.0000000  0.0000000  0.0000000 )
                  (  0.0000000 -1.0000000  0.0000000 )


      isym = 13     inv. 180 deg rotation - cart. axis [1,1,0]   

 cryst.   s(13) = (     0         -1          0      )
                  (    -1          0          0      )
                  (     0          0          1      )

 cart.    s(13) = (  0.0000000 -1.0000000  0.0000000 )
                  ( -1.0000000  0.0000000  0.0000000 )
                  (  0.0000000  0.0000000  1.0000000 )


      isym = 14     inv. 180 deg rotation - cart. axis [1,-1,0]  

 cryst.   s(14) = (     0          1          0      )
                  (     1          0          0      )
                  (     0          0          1      )

 cart.    s(14) = (  0.0000000  1.0000000  0.0000000 )
                  (  1.0000000  0.0000000  0.0000000 )
                  (  0.0000000  0.0000000  1.0000000 )


      isym = 15     inv.  90 deg rotation - cart. axis [0,0,-1]  

 cryst.   s(15) = (     0          1          0      )
                  (    -1          0          0      )
                  (     0          0         -1      )

 cart.    s(15) = (  0.0000000 -1.0000000  0.0000000 )
                  (  1.0000000  0.0000000  0.0000000 )
                  (  0.0000000  0.0000000 -1.0000000 )


      isym = 16     inv.  90 deg rotation - cart. axis [0,0,1]   

 cryst.   s(16) = (     0         -1          0      )
                  (     1          0          0      )
                  (     0          0         -1      )

 cart.    s(16) = (  0.0000000  1.0000000  0.0000000 )
                  ( -1.0000000  0.0000000  0.0000000 )
                  (  0.0000000  0.0000000 -1.0000000 )


      isym = 17     inv. 180 deg rotation - cart. axis [1,0,1]   

 cryst.   s(17) = (     0          0         -1      )
                  (     0          1          0      )
                  (    -1          0          0      )

 cart.    s(17) = (  0.0000000  0.0000000 -1.0000000 )
                  (  0.0000000  1.0000000  0.0000000 )
                  ( -1.0000000  0.0000000  0.0000000 )


      isym = 18     inv. 180 deg rotation - cart. axis [-1,0,1]  

 cryst.   s(18) = (     0          0          1      )
                  (     0          1          0      )
                  (     1          0          0      )

 cart.    s(18) = (  0.0000000  0.0000000  1.0000000 )
                  (  0.0000000  1.0000000  0.0000000 )
                  (  1.0000000  0.0000000  0.0000000 )


      isym = 19     inv.  90 deg rotation - cart. axis [0,1,0]   

 cryst.   s(19) = (     0          0          1      )
                  (     0         -1          0      )
                  (    -1          0          0      )

 cart.    s(19) = (  0.0000000  0.0000000 -1.0000000 )
                  (  0.0000000 -1.0000000  0.0000000 )
                  (  1.0000000  0.0000000  0.0000000 )


      isym = 20     inv.  90 deg rotation - cart. axis [0,-1,0]  

 cryst.   s(20) = (     0          0         -1      )
                  (     0         -1          0      )
                  (     1          0          0      )

 cart.    s(20) = (  0.0000000  0.0000000  1.0000000 )
                  (  0.0000000 -1.0000000  0.0000000 )
                  ( -1.0000000  0.0000000  0.0000000 )


      isym = 21     inv. 180 deg rotation - cart. axis [0,1,1]   

 cryst.   s(21) = (     1          0          0      )
                  (     0          0         -1      )
                  (     0         -1          0      )

 cart.    s(21) = (  1.0000000  0.0000000  0.0000000 )
                  (  0.0000000  0.0000000 -1.0000000 )
                  (  0.0000000 -1.0000000  0.0000000 )


      isym = 22     inv. 180 deg rotation - cart. axis [0,1,-1]  

 cryst.   s(22) = (     1          0          0      )
                  (     0          0          1      )
                  (     0          1          0      )

 cart.    s(22) = (  1.0000000  0.0000000  0.0000000 )
                  (  0.0000000  0.0000000  1.0000000 )
                  (  0.0000000  1.0000000  0.0000000 )


      isym = 23     inv.  90 deg rotation - cart. axis [-1,0,0]  

 cryst.   s(23) = (    -1          0          0      )
                  (     0          0          1      )
                  (     0         -1          0      )

 cart.    s(23) = ( -1.0000000  0.0000000  0.0000000 )
                  (  0.0000000  0.0000000 -1.0000000 )
                  (  0.0000000  1.0000000  0.0000000 )


      isym = 24     inv.  90 deg rotation - cart. axis [1,0,0]   

 cryst.   s(24) = (    -1          0          0      )
                  (     0          0         -1      )
                  (     0          1          0      )

 cart.    s(24) = ( -1.0000000  0.0000000  0.0000000 )
                  (  0.0000000  0.0000000  1.0000000 )
                  (  0.0000000 -1.0000000  0.0000000 )


   Cartesian axes

     site n.     atom                  positions (a.u.)
         1           Ge  tau(   1) = (   0.0000000   0.0000000   0.0000000  )
         2           Si  tau(   2) = (   0.0000000   0.0000000  10.2625355  )
         3           Si  tau(   3) = (   0.0000000  10.2625355   0.0000000  )
         4           Si  tau(   4) = (   0.0000000  10.2625355  10.2625355  )
         5           Si  tau(   5) = (  10.2625355   0.0000000   0.0000000  )
         6           Si  tau(   6) = (  10.2625355   0.0000000  10.2625355  )
         7           Si  tau(   7) = (  10.2625355  10.2625355   0.0000000  )
         8           Si  tau(   8) = (  10.2625355  10.2625355  10.2625355  )
         9           Si  tau(   9) = (   0.0000000   5.1312678   5.1312678  )
        10           Si  tau(  10) = (   0.0000000   5.1312678  15.3938033  )
        11           Si  tau(  11) = (   0.0000000  15.3938033   5.1312678  )
        12           Si  tau(  12) = (   0.0000000  15.3938033  15.3938033  )
        13           Si  tau(  13) = (  10.2625355   5.1312678   5.1312678  )
        14           Si  tau(  14) = (  10.2625355   5.1312678  15.3938033  )
        15           Si  tau(  15) = (  10.2625355  15.3938033   5.1312678  )
        16           Si  tau(  16) = (  10.2625355  15.3938033  15.3938033  )
        17           Si  tau(  17) = (   5.1312678   0.0000000   5.1312678  )
        18           Si  tau(  18) = (   5.1312678   0.0000000  15.3938033  )
        19           Si  tau(  19) = (   5.1312678  10.2625355   5.1312678  )
        20           Si  tau(  20) = (   5.1312678  10.2625355  15.3938033  )
        21           Si  tau(  21) = (  15.3938033   0.0000000   5.1312678  )
        22           Si  tau(  22) = (  15.3938033   0.0000000  15.3938033  )
        23           Si  tau(  23) = (  15.3938033  10.2625355   5.1312678  )
        24           Si  tau(  24) = (  15.3938033  10.2625355  15.3938033  )
        25           Si  tau(  25) = (   5.1312678   5.1312678   0.0000000  )
        26           Si  tau(  26) = (   5.1312678   5.1312678  10.2625355  )
        27           Si  tau(  27) = (   5.1312678  15.3938033   0.0000000  )
        28           Si  tau(  28) = (   5.1312678  15.3938033  10.2625355  )
        29           Si  tau(  29) = (  15.3938033   5.1312678   0.0000000  )
        30           Si  tau(  30) = (  15.3938033   5.1312678  10.2625355  )
        31           Si  tau(  31) = (  15.3938033  15.3938033   0.0000000  )
        32           Si  tau(  32) = (  15.3938033  15.3938033  10.2625355  )
        33           Si  tau(  33) = (   7.6969016   7.6969016   2.5656339  )
        34           Si  tau(  34) = (   7.6969016   7.6969016  12.8281694  )
        35           Si  tau(  35) = (   7.6969016  17.9594371   2.5656339  )
        36           Si  tau(  36) = (   7.6969016  17.9594371  12.8281694  )
        37           Si  tau(  37) = (  17.9594371   7.6969016   2.5656339  )
        38           Si  tau(  38) = (  17.9594371   7.6969016  12.8281694  )
        39           Si  tau(  39) = (  17.9594371  17.9594371   2.5656339  )
        40           Si  tau(  40) = (  17.9594371  17.9594371  12.8281694  )
        41           Si  tau(  41) = (   7.6969016   2.5656339   7.6969016  )
        42           Si  tau(  42) = (   7.6969016   2.5656339  17.9594371  )
        43           Si  tau(  43) = (   7.6969016  12.8281694   7.6969016  )
        44           Si  tau(  44) = (   7.6969016  12.8281694  17.9594371  )
        45           Si  tau(  45) = (  17.9594371   2.5656339   7.6969016  )
        46           Si  tau(  46) = (  17.9594371   2.5656339  17.9594371  )
        47           Si  tau(  47) = (  17.9594371  12.8281694   7.6969016  )
        48           Si  tau(  48) = (  17.9594371  12.8281694  17.9594371  )
        49           Si  tau(  49) = (   2.5656339   7.6969016   7.6969016  )
        50           Si  tau(  50) = (   2.5656339   7.6969016  17.9594371  )
        51           Si  tau(  51) = (   2.5656339  17.9594371   7.6969016  )
        52           Si  tau(  52) = (   2.5656339  17.9594371  17.9594371  )
        53           Si  tau(  53) = (  12.8281694   7.6969016   7.6969016  )
        54           Si  tau(  54) = (  12.8281694   7.6969016  17.9594371  )
        55           Si  tau(  55) = (  12.8281694  17.9594371   7.6969016  )
        56           Si  tau(  56) = (  12.8281694  17.9594371  17.9594371  )
        57           Si  tau(  57) = (   2.5656339   2.5656339   2.5656339  )
        58           Si  tau(  58) = (   2.5656339   2.5656339  12.8281694  )
        59           Si  tau(  59) = (   2.5656339  12.8281694   2.5656339  )
        60           Si  tau(  60) = (   2.5656339  12.8281694  12.8281694  )
        61           Si  tau(  61) = (  12.8281694   2.5656339   2.5656339  )
        62           Si  tau(  62) = (  12.8281694   2.5656339  12.8281694  )
        63           Si  tau(  63) = (  12.8281694  12.8281694   2.5656339  )
        64           Si  tau(  64) = (  12.8281694  12.8281694  12.8281694  )

   Crystallographic axes

     site n.     atom                  positions (cryst. coord.)
         1           Ge  tau(   1) = (  0.0000000  0.0000000  0.0000000  )
         2           Si  tau(   2) = (  0.0000000  0.0000000  0.5000000  )
         3           Si  tau(   3) = (  0.0000000  0.5000000  0.0000000  )
         4           Si  tau(   4) = (  0.0000000  0.5000000  0.5000000  )
         5           Si  tau(   5) = (  0.5000000  0.0000000  0.0000000  )
         6           Si  tau(   6) = (  0.5000000  0.0000000  0.5000000  )
         7           Si  tau(   7) = (  0.5000000  0.5000000  0.0000000  )
         8           Si  tau(   8) = (  0.5000000  0.5000000  0.5000000  )
         9           Si  tau(   9) = (  0.0000000  0.2500000  0.2500000  )
        10           Si  tau(  10) = (  0.0000000  0.2500000  0.7500000  )
        11           Si  tau(  11) = (  0.0000000  0.7500000  0.2500000  )
        12           Si  tau(  12) = (  0.0000000  0.7500000  0.7500000  )
        13           Si  tau(  13) = (  0.5000000  0.2500000  0.2500000  )
        14           Si  tau(  14) = (  0.5000000  0.2500000  0.7500000  )
        15           Si  tau(  15) = (  0.5000000  0.7500000  0.2500000  )
        16           Si  tau(  16) = (  0.5000000  0.7500000  0.7500000  )
        17           Si  tau(  17) = (  0.2500000  0.0000000  0.2500000  )
        18           Si  tau(  18) = (  0.2500000  0.0000000  0.7500000  )
        19           Si  tau(  19) = (  0.2500000  0.5000000  0.2500000  )
        20           Si  tau(  20) = (  0.2500000  0.5000000  0.7500000  )
        21           Si  tau(  21) = (  0.7500000  0.0000000  0.2500000  )
        22           Si  tau(  22) = (  0.7500000  0.0000000  0.7500000  )
        23           Si  tau(  23) = (  0.7500000  0.5000000  0.2500000  )
        24           Si  tau(  24) = (  0.7500000  0.5000000  0.7500000  )
        25           Si  tau(  25) = (  0.2500000  0.2500000  0.0000000  )
        26           Si  tau(  26) = (  0.2500000  0.2500000  0.5000000  )
        27           Si  tau(  27) = (  0.2500000  0.7500000  0.0000000  )
        28           Si  tau(  28) = (  0.2500000  0.7500000  0.5000000  )
        29           Si  tau(  29) = (  0.7500000  0.2500000  0.0000000  )
        30           Si  tau(  30) = (  0.7500000  0.2500000  0.5000000  )
        31           Si  tau(  31) = (  0.7500000  0.7500000  0.0000000  )
        32           Si  tau(  32) = (  0.7500000  0.7500000  0.5000000  )
        33           Si  tau(  33) = (  0.3750000  0.3750000  0.1250000  )
        34           Si  tau(  34) = (  0.3750000  0.3750000  0.6250000  )
        35           Si  tau(  35) = (  0.3750000  0.8750000  0.1250000  )
        36           Si  tau(  36) = (  0.3750000  0.8750000  0.6250000  )
        37           Si  tau(  37) = (  0.8750000  0.3750000  0.1250000  )
        38           Si  tau(  38) = (  0.8750000  0.3750000  0.6250000  )
        39           Si  tau(  39) = (  0.8750000  0.8750000  0.1250000  )
        40           Si  tau(  40) = (  0.8750000  0.8750000  0.6250000  )
        41           Si  tau(  41) = (  0.3750000  0.1250000  0.3750000  )
        42           Si  tau(  42) = (  0.3750000  0.1250000  0.8750000  )
        43           Si  tau(  43) = (  0.3750000  0.6250000  0.3750000  )
        44           Si  tau(  44) = (  0.3750000  0.6250000  0.8750000  )
        45           Si  tau(  45) = (  0.8750000  0.1250000  0.3750000  )
        46           Si  tau(  46) = (  0.8750000  0.1250000  0.8750000  )
        47           Si  tau(  47) = (  0.8750000  0.6250000  0.3750000  )
        48           Si  tau(  48) = (  0.8750000  0.6250000  0.8750000  )
        49           Si  tau(  49) = (  0.1250000  0.3750000  0.3750000  )
        50           Si  tau(  50) = (  0.1250000  0.3750000  0.8750000  )
        51           Si  tau(  51) = (  0.1250000  0.8750000  0.3750000  )
        52           Si  tau(  52) = (  0.1250000  0.8750000  0.8750000  )
        53           Si  tau(  53) = (  0.6250000  0.3750000  0.3750000  )
        54           Si  tau(  54) = (  0.6250000  0.3750000  0.8750000  )
        55           Si  tau(  55) = (  0.6250000  0.8750000  0.3750000  )
        56           Si  tau(  56) = (  0.6250000  0.8750000  0.8750000  )
        57           Si  tau(  57) = (  0.1250000  0.1250000  0.1250000  )
        58           Si  tau(  58) = (  0.1250000  0.1250000  0.6250000  )
        59           Si  tau(  59) = (  0.1250000  0.6250000  0.1250000  )
        60           Si  tau(  60) = (  0.1250000  0.6250000  0.6250000  )
        61           Si  tau(  61) = (  0.6250000  0.1250000  0.1250000  )
        62           Si  tau(  62) = (  0.6250000  0.1250000  0.6250000  )
        63           Si  tau(  63) = (  0.6250000  0.6250000  0.1250000  )
        64           Si  tau(  64) = (  0.6250000  0.6250000  0.6250000  )

     number of k points=    10  gaussian smearing, width (Ry)=  0.0010
                       cart. coord. in units 2pi/alat
        k(    1) = (   0.0000000   0.0000000   0.0000000), wk =   0.0312500
        k(    2) = (   0.0000000   0.0000000   0.0121802), wk =   0.1875000
        k(    3) = (   0.0000000   0.0000000  -0.0243605), wk =   0.0937500
        k(    4) = (   0.0000000   0.0121802   0.0121802), wk =   0.3750000
        k(    5) = (   0.0000000   0.0121802  -0.0243605), wk =   0.3750000
        k(    6) = (   0.0000000  -0.0243605  -0.0243605), wk =   0.0937500
        k(    7) = (   0.0121802   0.0121802   0.0121802), wk =   0.2500000
        k(    8) = (   0.0121802   0.0121802  -0.0243605), wk =   0.3750000
        k(    9) = (   0.0121802  -0.0243605  -0.0243605), wk =   0.1875000
        k(   10) = (  -0.0243605  -0.0243605  -0.0243605), wk =   0.0312500

                       cryst. coord.
        k(    1) = (   0.0000000   0.0000000   0.0000000), wk =   0.0312500
        k(    2) = (   0.0000000   0.0000000   0.2500000), wk =   0.1875000
        k(    3) = (   0.0000000   0.0000000  -0.5000000), wk =   0.0937500
        k(    4) = (   0.0000000   0.2500000   0.2500000), wk =   0.3750000
        k(    5) = (   0.0000000   0.2500000  -0.5000000), wk =   0.3750000
        k(    6) = (   0.0000000  -0.5000000  -0.5000000), wk =   0.0937500
        k(    7) = (   0.2500000   0.2500000   0.2500000), wk =   0.2500000
        k(    8) = (   0.2500000   0.2500000  -0.5000000), wk =   0.3750000
        k(    9) = (   0.2500000  -0.5000000  -0.5000000), wk =   0.1875000
        k(   10) = (  -0.5000000  -0.5000000  -0.5000000), wk =   0.0312500

     Dense  grid:   758657 G-vectors     FFT dimensions: ( 120, 120, 120)

     Smooth grid:   295907 G-vectors     FFT dimensions: (  90,  90,  90)

     Dynamical RAM for                 wfc:      90.19 MB

     Dynamical RAM for     wfc (w. buffer):     270.56 MB

     Dynamical RAM for           str. fact:      23.15 MB

     Dynamical RAM for           local pot:       0.00 MB

     Dynamical RAM for          nlocal pot:     649.34 MB

     Dynamical RAM for                qrad:       0.90 MB

     Dynamical RAM for          rho,v,vnew:      74.28 MB

     Dynamical RAM for               rhoin:      24.76 MB

     Dynamical RAM for            rho*nmix:     185.22 MB

     Dynamical RAM for           G-vectors:      45.67 MB

     Dynamical RAM for          h,s,v(r/c):      18.75 MB

     Dynamical RAM for          <psi|beta>:       2.81 MB

     Dynamical RAM for                 psi:     360.74 MB

     Dynamical RAM for                hpsi:     360.74 MB

     Dynamical RAM for                spsi:     360.74 MB

     Dynamical RAM for      wfcinit/wfcrot:     295.79 MB

     Dynamical RAM for           addusdens:    2882.47 MB

     Dynamical RAM for          addusforce:    4358.68 MB

     Estimated static dynamical RAM per process >       1.34 GB

     Estimated max dynamical RAM per process >       5.60 GB

     Estimated total dynamical RAM >      27.99 GB

SIRIUS version :  4.10
git hash       : 1860c229417ed8af1d8d9b2917528f9b0898187f
build date     : Tue, 14 Nov 2017 15:08:16
start time     : Tue, 14 Nov 2017 15:45:24

number of MPI ranks           : 5
MPI grid                      : 1 1 5
maximum number of OMP threads : 12

FFT context for density and potential
=====================================
  comm size                             : 1
  plane wave cutoff                     : 17.320508
  grid size                             : 120 120 120   total : 1728000
  grid limits                           : -59 60   -59 60   -59 60
  number of G-vectors within the cutoff : 379329
  local number of G-vectors             : 75863
  number of G-shells                    : 2670

FFT context for coarse grid
===========================
  comm size                             : 1
  plane wave cutoff                     : 12.649111
  grid size                             : 90 90 90   total : 729000
  grid limits                           : -44 45   -44 45   -44 45
  number of G-vectors within the cutoff : 147954
  number of G-shells                    : 1426


Unit cell
--------------------------------------------------------------------------------
lattice vectors
  a1 :      20.5250710000       0.0000000000       0.0000000000 
  a2 :       0.0000000000      20.5250710000       0.0000000000 
  a3 :       0.0000000000       0.0000000000      20.5250710000 
reciprocal lattice vectors
  b1 :       0.3061224639       0.0000000000       0.0000000000 
  b2 :       0.0000000000       0.3061224639       0.0000000000 
  b3 :       0.0000000000       0.0000000000       0.3061224639 

unit cell volume :      8646.77193514 [a.u.^3]
1/sqrt(omega)    :         0.01075407
MT volume        : 0.000000 ( 0.00%)
IT volume        : 8646.771935 (100.00%)

number of atom types : 2
type id : 0   symbol : Ge   mt_radius : 203.145959
type id : 1   symbol : Si   mt_radius : 205.944975
number of atoms : 64
number of symmetry classes : 0
number of PAW atoms : 0

symbol         : Ge
--------------------------------------------------------------------------------
name           : 
zn             : 14
mass           : 72.610000
mt_radius      : 203.145959
num_mt_points  : 873
grid_origin    : 0.000000
grid_name      : external

number of core electrons    : 0.000000
number of valence electrons : 14.000000

total number of radial functions : 6
lmax of radial functions : 2
maximum number of radial functions per orbital quantum number: 2
total number of basis functions : 18
number of aw basis functions : 0
number of lo basis functions : 18

symbol         : Si
--------------------------------------------------------------------------------
name           : 
zn             : 4
mass           : 28.085500
mt_radius      : 205.944975
num_mt_points  : 899
grid_origin    : 0.000000
grid_name      : external

number of core electrons    : 0.000000
number of valence electrons : 4.000000

total number of radial functions : 6
lmax of radial functions : 2
maximum number of radial functions per orbital quantum number: 2
total number of basis functions : 18
number of aw basis functions : 0
number of lo basis functions : 18

total nuclear charge               : 266
number of core electrons           : 0.000000
number of valence electrons        : 266.000000
total number of electrons          : 266.000000
total number of aw basis functions : 0
total number of lo basis functions : 1152
number of first-variational states : 160
number of bands                    : 160
number of spins                    : 1
number of magnetic dimensions      : 0
lmax_apw                           : -1
lmax_rho                           : 4
lmax_pot                           : 4
lmax_rf                            : 2
smearing width                     : 0.010000
cyclic block size                  : 128
|G+k| cutoff                       : 6.324555
valence relativity                 : zora
core relativity                    : Dirac
standard eigen-value solver        : LAPACK
generalized eigen-value solver     : LAPACK
processing unit                    : GPU
  name                             : Tesla P100-PCIE-16GB 
  major                            : 6 
  minor                            : 0 
  asyncEngineCount                 : 2 
  canMapHostMemory                 : 1 
  clockRate                        : 1328500 kHz 
  concurrentKernels                : 1 
  ECCEnabled                       : 1 
  l2CacheSize                      : 4096 kB 
  maxGridSize                      : 2147483647 65535 65535 
  maxThreadsDim                    : 1024 1024 64 
  maxThreadsPerBlock               : 1024 
  maxThreadsPerMultiProcessor      : 2048 
  memoryBusWidth                   : 4096 bits 
  memoryClockRate                  : 715000 kHz 
  memPitch                         : 2147483647 
  multiProcessorCount              : 56 
  regsPerBlock                     : 65536 
  sharedMemPerBlock                : 48 kB 
  totalConstMem                    : 64 kB 
  totalGlobalMem                   : 16666880 kB 
  available memory                 : 16233728 kB 

XC functionals
==============
1) XC_LDA_X: Slater exchange
P. A. M. Dirac, Math. Proc. Cambridge Philos. Soc. 26, 376 (1930) (10.1017/S0305004100016108)
F. Bloch, Z. Phys. 57, 545 (1929) (10.1007/BF01340281)

2) XC_LDA_C_PZ: Perdew & Zunger
J. P. Perdew and A. Zunger, Phys. Rev. B 23, 5048 (1981) (10.1103/PhysRevB.23.5048)


total number of k-points : 10
--------------------------------------------------------------------------------
  ik                vk                    weight  num_gkvec
--------------------------------------------------------------------------------
   0     0.0000   0.0000   0.0000       0.015625      37073
   1     0.0000   0.0000   0.2500       0.093750      36941
   2     0.0000   0.0000  -0.5000       0.046875      36906
   3     0.0000   0.2500   0.2500       0.187500      36919
   4     0.0000   0.2500  -0.5000       0.187500      36970
   5     0.0000  -0.5000  -0.5000       0.046875      37020
   6     0.2500   0.2500   0.2500       0.125000      36954
   7     0.2500   0.2500  -0.5000       0.187500      36904
   8     0.2500  -0.5000  -0.5000       0.093750      36900
   9    -0.5000  -0.5000  -0.5000       0.015625      37056

     Self-consistent Calculation

     iteration #  1     ecut=    40.00 Ry     beta=0.70
     ethr =  1.00E-02
Average number of iterations:     3.200000
Lowest band energies
ik :  0,    -0.669586   -0.669586   -0.669586   -0.668007   -0.668007   -0.231754   -0.197265   -0.192115   -0.192115   -0.192115
ik :  1,    -0.669586   -0.669586   -0.669586   -0.668006   -0.668005   -0.229341   -0.210075   -0.193504   -0.189875   -0.189875
ik :  2,    -0.669586   -0.669586   -0.669586   -0.668005   -0.668005   -0.222878   -0.221356   -0.189596   -0.183243   -0.183242
ik :  3,    -0.669586   -0.669586   -0.669586   -0.668005   -0.668005   -0.226938   -0.208599   -0.206753   -0.190546   -0.187989
ik :  4,    -0.669587   -0.669587   -0.669586   -0.668006   -0.668005   -0.220580   -0.218936   -0.201540   -0.199723   -0.184519
ik :  5,    -0.669587   -0.669587   -0.669587   -0.668007   -0.668005   -0.215201   -0.211702   -0.211702   -0.211678   -0.181010
ik :  6,    -0.669587   -0.669586   -0.669586   -0.668005   -0.668005   -0.224517   -0.207104   -0.204428   -0.204428   -0.188528
ik :  7,    -0.669586   -0.669586   -0.669586   -0.668005   -0.668005   -0.218229   -0.216527   -0.200724   -0.197508   -0.197489
ik :  8,    -0.669586   -0.669586   -0.669586   -0.668005   -0.668005   -0.213037   -0.209353   -0.209353   -0.209330   -0.193644
ik :  9,    -0.669587   -0.669587   -0.669587   -0.668006   -0.668006   -0.208682   -0.202366   -0.202366   -0.202366   -0.202329
     Ef =   0.4372963796124584

     total energy              =    -813.78757324 Ry
     Harris-Foulkes estimate   =       0.00000000 Ry
     estimated scf accuracy    <       1.82250273 Ry

     iteration #  2     ecut=    40.00 Ry     beta=0.70
     ethr =  6.85E-04
Average number of iterations:     2.100000
Lowest band energies
ik :  0,    -0.684683   -0.684683   -0.684683   -0.683540   -0.683540   -0.219010   -0.186401   -0.177853   -0.177853   -0.177853
ik :  1,    -0.684682   -0.684682   -0.684682   -0.683538   -0.683538   -0.216574   -0.196851   -0.181590   -0.175561   -0.175561
ik :  2,    -0.684682   -0.684682   -0.684682   -0.683538   -0.683537   -0.210693   -0.207394   -0.178785   -0.168941   -0.168940
ik :  3,    -0.684682   -0.684682   -0.684682   -0.683538   -0.683538   -0.214176   -0.195920   -0.192651   -0.177807   -0.173609
ik :  4,    -0.684683   -0.684682   -0.684682   -0.683539   -0.683538   -0.208446   -0.204933   -0.188651   -0.185388   -0.171951
ik :  5,    -0.684683   -0.684683   -0.684683   -0.683539   -0.683538   -0.203837   -0.197670   -0.197669   -0.197458   -0.169365
ik :  6,    -0.684682   -0.684682   -0.684682   -0.683538   -0.683538   -0.211773   -0.194861   -0.190279   -0.190279   -0.175380
ik :  7,    -0.684682   -0.684682   -0.684682   -0.683537   -0.683537   -0.206215   -0.202483   -0.188371   -0.183370   -0.183165
ik :  8,    -0.684682   -0.684682   -0.684682   -0.683538   -0.683537   -0.201880   -0.195276   -0.195276   -0.195065   -0.180712
ik :  9,    -0.684683   -0.684683   -0.684683   -0.683539   -0.683539   -0.198582   -0.188303   -0.188303   -0.188303   -0.187956
     Ef =   0.4561076119510712

     total energy              =    -813.91236920 Ry
     Harris-Foulkes estimate   =       0.00000000 Ry
     estimated scf accuracy    <       0.06637945 Ry

     iteration #  3     ecut=    40.00 Ry     beta=0.70
     ethr =  2.50E-05
Average number of iterations:    10.300000
Lowest band energies
ik :  0,    -0.659589   -0.659589   -0.659589   -0.658470   -0.658470   -0.217415   -0.181526   -0.177016   -0.177016   -0.176835
ik :  1,    -0.659588   -0.659588   -0.659588   -0.658469   -0.658469   -0.214911   -0.195034   -0.177904   -0.174728   -0.174544
ik :  2,    -0.659588   -0.659588   -0.659588   -0.658469   -0.658468   -0.207815   -0.207000   -0.173614   -0.168389   -0.168129
ik :  3,    -0.659588   -0.659588   -0.659588   -0.658469   -0.658468   -0.212419   -0.193392   -0.191807   -0.175166   -0.172521
ik :  4,    -0.659589   -0.659589   -0.659588   -0.658469   -0.658468   -0.205386   -0.204536   -0.185954   -0.184969   -0.168516
ik :  5,    -0.659589   -0.659589   -0.659589   -0.658470   -0.658469   -0.199167   -0.197488   -0.196831   -0.196831   -0.164581
ik :  6,    -0.659589   -0.659588   -0.659588   -0.658469   -0.658469   -0.209943   -0.191739   -0.189434   -0.189434   -0.173000
ik :  7,    -0.659589   -0.659588   -0.659588   -0.658468   -0.658468   -0.202982   -0.202088   -0.185064   -0.182795   -0.182549
ik :  8,    -0.659588   -0.659588   -0.659588   -0.658468   -0.658468   -0.196905   -0.195091   -0.194437   -0.194437   -0.177506
ik :  9,    -0.659590   -0.659590   -0.659589   -0.658469   -0.658469   -0.192056   -0.188149   -0.187730   -0.187730   -0.187730
     Ef =   0.4621298564135691

     total energy              =    -813.93092439 Ry
     Harris-Foulkes estimate   =       0.00000000 Ry
     estimated scf accuracy    <       0.00839377 Ry

     iteration #  4     ecut=    40.00 Ry     beta=0.70
     ethr =  3.16E-06
Average number of iterations:     8.600000
Lowest band energies
ik :  0,    -0.688236   -0.688236   -0.688236   -0.687128   -0.687128   -0.219440   -0.187394   -0.177500   -0.177500   -0.177500
ik :  1,    -0.688235   -0.688235   -0.688235   -0.687127   -0.687126   -0.217163   -0.196568   -0.182007   -0.175258   -0.175258
ik :  2,    -0.688235   -0.688235   -0.688235   -0.687126   -0.687126   -0.212675   -0.205542   -0.179889   -0.169922   -0.169922
ik :  3,    -0.688235   -0.688235   -0.688235   -0.687126   -0.687126   -0.214931   -0.195925   -0.191956   -0.177416   -0.173076
ik :  4,    -0.688236   -0.688236   -0.688235   -0.687127   -0.687126   -0.210643   -0.203108   -0.189213   -0.183393   -0.172868
ik :  5,    -0.688236   -0.688236   -0.688236   -0.687127   -0.687127   -0.207176   -0.196970   -0.196970   -0.194332   -0.170811
ik :  6,    -0.688236   -0.688235   -0.688235   -0.687126   -0.687126   -0.212751   -0.195066   -0.189626   -0.189626   -0.174441
ik :  7,    -0.688235   -0.688235   -0.688235   -0.687126   -0.687126   -0.208688   -0.200692   -0.188940   -0.183996   -0.181424
ik :  8,    -0.688235   -0.688235   -0.688235   -0.687126   -0.687126   -0.205468   -0.194618   -0.194618   -0.191956   -0.182100
ik :  9,    -0.688236   -0.688236   -0.688236   -0.687127   -0.687127   -0.202933   -0.188922   -0.188922   -0.188922   -0.185743
     Ef =   0.4683991663645664

     total energy              =    -813.92850529 Ry
     Harris-Foulkes estimate   =       0.00000000 Ry
     estimated scf accuracy    <       0.04961894 Ry

     iteration #  5     ecut=    40.00 Ry     beta=0.70
     ethr =  3.16E-06
Average number of iterations:     6.500000
Lowest band energies
ik :  0,    -0.675315   -0.675315   -0.675315   -0.674207   -0.674207   -0.218212   -0.184436   -0.177344   -0.177344   -0.177344
ik :  1,    -0.675314   -0.675314   -0.675314   -0.674205   -0.674205   -0.215731   -0.195979   -0.179954   -0.175052   -0.175052
ik :  2,    -0.675314   -0.675314   -0.675314   -0.674205   -0.674204   -0.209178   -0.207283   -0.176442   -0.168689   -0.168448
ik :  3,    -0.675314   -0.675314   -0.675314   -0.674205   -0.674205   -0.213267   -0.194825   -0.192095   -0.176523   -0.173092
ik :  4,    -0.675315   -0.675315   -0.675314   -0.674206   -0.674205   -0.206822   -0.204821   -0.187284   -0.185269   -0.170215
ik :  5,    -0.675315   -0.675315   -0.675315   -0.674206   -0.674205   -0.201492   -0.197783   -0.197116   -0.197116   -0.167082
ik :  6,    -0.675315   -0.675314   -0.675314   -0.674205   -0.674205   -0.210822   -0.193573   -0.189722   -0.189722   -0.174541
ik :  7,    -0.675314   -0.675314   -0.675314   -0.674204   -0.674204   -0.204504   -0.202375   -0.186819   -0.183097   -0.182856
ik :  8,    -0.675314   -0.675314   -0.675314   -0.674205   -0.674204   -0.199390   -0.195392   -0.194722   -0.194722   -0.179110
ik :  9,    -0.675315   -0.675315   -0.675315   -0.674206   -0.674206   -0.195505   -0.188694   -0.187787   -0.187787   -0.187787
     Ef =   0.4705077953916614

     total energy              =    -813.93532538 Ry
     Harris-Foulkes estimate   =       0.00000000 Ry
     estimated scf accuracy    <       0.00185338 Ry

     iteration #  6     ecut=    40.00 Ry     beta=0.70
     ethr =  6.97E-07
Average number of iterations:     2.200000
Lowest band energies
ik :  0,    -0.671601   -0.671601   -0.671601   -0.670490   -0.670490   -0.218150   -0.183470   -0.177392   -0.177392   -0.177333
ik :  1,    -0.671600   -0.671600   -0.671600   -0.670489   -0.670488   -0.215670   -0.195788   -0.179434   -0.175102   -0.175041
ik :  2,    -0.671600   -0.671600   -0.671600   -0.670488   -0.670487   -0.209256   -0.207009   -0.175849   -0.168311   -0.168280
ik :  3,    -0.671600   -0.671600   -0.671600   -0.670488   -0.670488   -0.213207   -0.194420   -0.192237   -0.176238   -0.173081
ik :  4,    -0.671601   -0.671601   -0.671600   -0.670489   -0.670488   -0.206888   -0.204544   -0.187271   -0.185003   -0.170183
ik :  5,    -0.671601   -0.671601   -0.671601   -0.670489   -0.670488   -0.201473   -0.197258   -0.197258   -0.197100   -0.166885
ik :  6,    -0.671601   -0.671600   -0.671600   -0.670488   -0.670488   -0.210762   -0.193016   -0.189862   -0.189862   -0.173945
ik :  7,    -0.671600   -0.671600   -0.671600   -0.670488   -0.670487   -0.204554   -0.202096   -0.186615   -0.182826   -0.182743
ik :  8,    -0.671600   -0.671600   -0.671600   -0.670488   -0.670487   -0.199328   -0.194862   -0.194862   -0.194706   -0.179256
ik :  9,    -0.671601   -0.671601   -0.671601   -0.670489   -0.670489   -0.195234   -0.187759   -0.187759   -0.187759   -0.187675
     Ef =   0.4712130883499557

     total energy              =    -813.93563452 Ry
     Harris-Foulkes estimate   =       0.00000000 Ry
     estimated scf accuracy    <       0.00017187 Ry

     iteration #  7     ecut=    40.00 Ry     beta=0.70
     ethr =  6.46E-08
Average number of iterations:     3.000000
Lowest band energies
ik :  0,    -0.671125   -0.671125   -0.671125   -0.670013   -0.670013   -0.218115   -0.183639   -0.177293   -0.177293   -0.177293
ik :  1,    -0.671124   -0.671124   -0.671124   -0.670012   -0.670011   -0.215636   -0.195770   -0.179475   -0.175001   -0.175001
ik :  2,    -0.671124   -0.671124   -0.671124   -0.670011   -0.670011   -0.209235   -0.206965   -0.175888   -0.168248   -0.168248
ik :  3,    -0.671125   -0.671124   -0.671124   -0.670011   -0.670011   -0.213174   -0.194461   -0.192129   -0.176189   -0.173034
ik :  4,    -0.671125   -0.671125   -0.671125   -0.670012   -0.670011   -0.206873   -0.204501   -0.187235   -0.184959   -0.170114
ik :  5,    -0.671125   -0.671125   -0.671125   -0.670013   -0.670012   -0.201518   -0.197151   -0.197151   -0.197120   -0.166847
ik :  6,    -0.671125   -0.671125   -0.671125   -0.670011   -0.670011   -0.210732   -0.193101   -0.189755   -0.189755   -0.174006
ik :  7,    -0.671125   -0.671124   -0.671124   -0.670011   -0.670011   -0.204546   -0.202053   -0.186615   -0.182719   -0.182691
ik :  8,    -0.671124   -0.671124   -0.671124   -0.670011   -0.670011   -0.199386   -0.194755   -0.194755   -0.194725   -0.179218
ik :  9,    -0.671126   -0.671126   -0.671126   -0.670012   -0.670012   -0.195361   -0.187652   -0.187652   -0.187652   -0.187599
     Ef =   0.4713788923988088

     total energy              =    -813.93566006 Ry
     Harris-Foulkes estimate   =       0.00000000 Ry
     estimated scf accuracy    <       0.00001452 Ry

     iteration #  8     ecut=    40.00 Ry     beta=0.70
     ethr =  5.46E-09
Average number of iterations:     3.000000
Lowest band energies
ik :  0,    -0.671270   -0.671270   -0.671270   -0.670159   -0.670159   -0.218096   -0.183650   -0.177267   -0.177267   -0.177267
ik :  1,    -0.671270   -0.671269   -0.671269   -0.670157   -0.670157   -0.215618   -0.195751   -0.179479   -0.174974   -0.174974
ik :  2,    -0.671269   -0.671269   -0.671269   -0.670157   -0.670156   -0.209228   -0.206934   -0.175916   -0.168219   -0.168219
ik :  3,    -0.671270   -0.671269   -0.671269   -0.670157   -0.670157   -0.213157   -0.194449   -0.192104   -0.176187   -0.173002
ik :  4,    -0.671270   -0.671270   -0.671270   -0.670158   -0.670157   -0.206867   -0.204470   -0.187227   -0.184927   -0.170118
ik :  5,    -0.671270   -0.671270   -0.671270   -0.670158   -0.670157   -0.201527   -0.197125   -0.197125   -0.197082   -0.166868
ik :  6,    -0.671270   -0.671270   -0.671270   -0.670157   -0.670157   -0.210715   -0.193094   -0.189729   -0.189729   -0.173991
ik :  7,    -0.671270   -0.671269   -0.671269   -0.670156   -0.670156   -0.204542   -0.202021   -0.186615   -0.182694   -0.182655
ik :  8,    -0.671269   -0.671269   -0.671269   -0.670157   -0.670156   -0.199398   -0.194729   -0.194729   -0.194688   -0.179213
ik :  9,    -0.671271   -0.671271   -0.671271   -0.670158   -0.670158   -0.195389   -0.187627   -0.187627   -0.187627   -0.187552
     Ef =   0.4713884509352786

     total energy              =    -813.93566304 Ry
     Harris-Foulkes estimate   =       0.00000000 Ry
     estimated scf accuracy    <       0.00000110 Ry

     iteration #  9     ecut=    40.00 Ry     beta=0.70
     ethr =  4.15E-10
Average number of iterations:     3.000000
Lowest band energies
ik :  0,    -0.671367   -0.671367   -0.671367   -0.670256   -0.670256   -0.218090   -0.183666   -0.177255   -0.177255   -0.177255
ik :  1,    -0.671366   -0.671366   -0.671366   -0.670254   -0.670254   -0.215612   -0.195747   -0.179487   -0.174962   -0.174962
ik :  2,    -0.671366   -0.671366   -0.671366   -0.670254   -0.670253   -0.209227   -0.206924   -0.175932   -0.168207   -0.168207
ik :  3,    -0.671366   -0.671366   -0.671366   -0.670254   -0.670253   -0.213152   -0.194449   -0.192093   -0.176189   -0.172993
ik :  4,    -0.671367   -0.671366   -0.671366   -0.670254   -0.670253   -0.206867   -0.204459   -0.187225   -0.184916   -0.170124
ik :  5,    -0.671367   -0.671367   -0.671367   -0.670255   -0.670254   -0.201534   -0.197115   -0.197115   -0.197072   -0.166882
ik :  6,    -0.671366   -0.671366   -0.671366   -0.670254   -0.670254   -0.210710   -0.193098   -0.189718   -0.189718   -0.173992
ik :  7,    -0.671366   -0.671366   -0.671366   -0.670253   -0.670253   -0.204543   -0.202011   -0.186618   -0.182685   -0.182646
ik :  8,    -0.671366   -0.671366   -0.671366   -0.670253   -0.670253   -0.199407   -0.194719   -0.194719   -0.194677   -0.179213
ik :  9,    -0.671367   -0.671367   -0.671367   -0.670254   -0.670254   -0.195406   -0.187618   -0.187618   -0.187618   -0.187543
     Ef =   0.4713829546206559

     total energy              =    -813.93566339 Ry
     Harris-Foulkes estimate   =       0.00000000 Ry
     estimated scf accuracy    <       0.00000015 Ry

     iteration # 10     ecut=    40.00 Ry     beta=0.70
     ethr =  5.81E-11
Average number of iterations:     2.700000
Lowest band energies
ik :  0,    -0.671382   -0.671382   -0.671382   -0.670271   -0.670271   -0.218088   -0.183662   -0.177253   -0.177253   -0.177253
ik :  1,    -0.671381   -0.671381   -0.671381   -0.670270   -0.670269   -0.215611   -0.195745   -0.179484   -0.174961   -0.174961
ik :  2,    -0.671381   -0.671381   -0.671381   -0.670269   -0.670268   -0.209224   -0.206923   -0.175929   -0.168205   -0.168205
ik :  3,    -0.671381   -0.671381   -0.671381   -0.670269   -0.670269   -0.213150   -0.194446   -0.192092   -0.176187   -0.172991
ik :  4,    -0.671382   -0.671382   -0.671381   -0.670270   -0.670269   -0.206865   -0.204458   -0.187223   -0.184915   -0.170121
ik :  5,    -0.671382   -0.671382   -0.671382   -0.670270   -0.670269   -0.201530   -0.197114   -0.197114   -0.197071   -0.166878
ik :  6,    -0.671382   -0.671382   -0.671382   -0.670269   -0.670269   -0.210708   -0.193094   -0.189717   -0.189717   -0.173989
ik :  7,    -0.671382   -0.671381   -0.671381   -0.670268   -0.670268   -0.204540   -0.202010   -0.186616   -0.182683   -0.182643
ik :  8,    -0.671381   -0.671381   -0.671381   -0.670269   -0.670268   -0.199403   -0.194718   -0.194718   -0.194676   -0.179210
ik :  9,    -0.671383   -0.671383   -0.671383   -0.670270   -0.670270   -0.195401   -0.187616   -0.187616   -0.187616   -0.187540
     Ef =   0.4713820268107126

     total energy              =    -813.93566341 Ry
     Harris-Foulkes estimate   =       0.00000000 Ry
     estimated scf accuracy    <       0.00000005 Ry

     iteration # 11     ecut=    40.00 Ry     beta=0.70
     ethr =  1.80E-11
Average number of iterations:     2.000000
Lowest band energies
ik :  0,    -0.671374   -0.671374   -0.671374   -0.670262   -0.670262   -0.218089   -0.183660   -0.177255   -0.177255   -0.177255
ik :  1,    -0.671373   -0.671373   -0.671373   -0.670261   -0.670261   -0.215612   -0.195746   -0.179484   -0.174963   -0.174963
ik :  2,    -0.671373   -0.671373   -0.671372   -0.670261   -0.670260   -0.209224   -0.206925   -0.175927   -0.168207   -0.168207
ik :  3,    -0.671373   -0.671373   -0.671372   -0.670260   -0.670260   -0.213151   -0.194447   -0.192094   -0.176188   -0.172993
ik :  4,    -0.671373   -0.671373   -0.671373   -0.670261   -0.670260   -0.206864   -0.204460   -0.187223   -0.184917   -0.170121
ik :  5,    -0.671374   -0.671374   -0.671373   -0.670262   -0.670261   -0.201529   -0.197116   -0.197116   -0.197073   -0.166877
ik :  6,    -0.671373   -0.671373   -0.671373   -0.670261   -0.670261   -0.210709   -0.193094   -0.189719   -0.189719   -0.173989
ik :  7,    -0.671373   -0.671373   -0.671373   -0.670260   -0.670260   -0.204540   -0.202012   -0.186615   -0.182684   -0.182646
ik :  8,    -0.671373   -0.671372   -0.671372   -0.670260   -0.670260   -0.199401   -0.194719   -0.194719   -0.194678   -0.179210
ik :  9,    -0.671374   -0.671374   -0.671374   -0.670261   -0.670261   -0.195398   -0.187618   -0.187618   -0.187618   -0.187543
     Ef =   0.4713812346475467

     total energy              =    -813.93566342 Ry
     Harris-Foulkes estimate   =       0.00000000 Ry
     estimated scf accuracy    <          3.5E-09 Ry

     iteration # 12     ecut=    40.00 Ry     beta=0.70
     ethr =  1.30E-12
Average number of iterations:     2.000000
Lowest band energies
ik :  0,    -0.671367   -0.671367   -0.671367   -0.670256   -0.670256   -0.218090   -0.183659   -0.177256   -0.177256   -0.177256
ik :  1,    -0.671366   -0.671366   -0.671366   -0.670254   -0.670254   -0.215612   -0.195746   -0.179483   -0.174963   -0.174963
ik :  2,    -0.671366   -0.671366   -0.671366   -0.670254   -0.670253   -0.209224   -0.206925   -0.175926   -0.168207   -0.168207
ik :  3,    -0.671366   -0.671366   -0.671366   -0.670254   -0.670254   -0.213151   -0.194447   -0.192094   -0.176188   -0.172993
ik :  4,    -0.671367   -0.671367   -0.671366   -0.670254   -0.670254   -0.206864   -0.204461   -0.187223   -0.184918   -0.170120
ik :  5,    -0.671367   -0.671367   -0.671367   -0.670255   -0.670254   -0.201528   -0.197116   -0.197116   -0.197074   -0.166876
ik :  6,    -0.671367   -0.671366   -0.671366   -0.670254   -0.670254   -0.210709   -0.193094   -0.189720   -0.189720   -0.173989
ik :  7,    -0.671366   -0.671366   -0.671366   -0.670253   -0.670253   -0.204540   -0.202012   -0.186615   -0.182684   -0.182646
ik :  8,    -0.671366   -0.671366   -0.671366   -0.670254   -0.670253   -0.199401   -0.194720   -0.194720   -0.194679   -0.179210
ik :  9,    -0.671367   -0.671367   -0.671367   -0.670254   -0.670254   -0.195397   -0.187618   -0.187618   -0.187618   -0.187544
     Ef =   0.4713817692396163
     last descf =   0.3209331689E-03

     End of self-consistent calculation

          k = 0.0000 0.0000 0.0000 ( 37073 PWs)   bands (ev):

   -18.2688 -18.2688 -18.2688 -18.2386 -18.2386  -5.9345  -4.9976  -4.8234
    -4.8234  -4.8234  -4.8214  -4.8214  -4.1148  -3.8629  -3.8629  -3.8629
    -3.8586  -3.8586  -3.8586  -3.8584  -3.8584  -3.8584  -3.8584  -3.8584
    -3.6105  -3.5672  -3.5672  -3.5672  -1.9436  -1.7644  -1.7644  -1.7644
    -1.7613  -1.7613  -1.6831  -1.5981  -1.5981  -1.5981  -1.5953  -1.5953
    -1.5953  -1.5946  -1.5946  -1.5946  -1.5944  -1.5944  -0.9554  -0.9379
    -0.9379  -0.9379   0.4464   0.5637   0.5637   0.5637   0.5672   0.5672
     0.5672   0.5681   0.5681   0.5705   0.5705   0.5705   2.1721   2.1721
     2.1721   2.1817   2.1817   2.1817   2.1825   2.1825   2.1825   2.1827
     2.1856   2.1856   2.2670   2.2728   2.2728   2.2728   2.2811   2.2811
     2.2811   2.2829   2.2829   2.2839   2.2839   2.2839   2.4683   2.5264
     2.5264   2.5300   2.5300   2.5300   3.2043   3.2043   3.2043   3.2045
     3.2045   3.2045   4.1645   4.1645   4.1645   4.1661   4.1661   4.1661
     4.1681   4.1681   4.1681   4.1768   4.1768   4.1768   4.7309   4.7309
     4.7309   4.7333   4.7333   4.7333   4.7334   4.7368   4.7368   4.7402
     4.7402   4.7402   4.8616   4.8616   4.8616   4.8648   4.8648   4.8706
     4.8706   4.8706   6.0678   6.0678   6.0678   6.6467   6.6812   6.6812
     6.6812   6.6824   6.6824   7.0855   7.1108   7.1108   7.1186   7.1186
     7.1186   7.4322   7.4909   7.4909   7.4909   8.3770   8.4257   8.4257
     8.4257   8.4282   8.4282   8.4282   8.4505   8.4505   8.4505   8.4510

     occupation numbers 
     1.0000   1.0000   1.0000   1.0000   1.0000   1.0000   1.0000   1.0000
     1.0000   1.0000   1.0000   1.0000   1.0000   1.0000   1.0000   1.0000
     1.0000   1.0000   1.0000   1.0000   1.0000   1.0000   1.0000   1.0000
     1.0000   1.0000   1.0000   1.0000   1.0000   1.0000   1.0000   1.0000
     1.0000   1.0000   1.0000   1.0000   1.0000   1.0000   1.0000   1.0000
     1.0000   1.0000   1.0000   1.0000   1.0000   1.0000   1.0000   1.0000
     1.0000   1.0000   1.0000   1.0000   1.0000   1.0000   1.0000   1.0000
     1.0000   1.0000   1.0000   1.0000   1.0000   1.0000   1.0000   1.0000
     1.0000   1.0000   1.0000   1.0000   1.0000   1.0000   1.0000   1.0000
     1.0000   1.0000   1.0000   1.0000   1.0000   1.0000   1.0000   1.0000
     1.0000   1.0000   1.0000   1.0000   1.0000   1.0000   1.0000   1.0000
     1.0000   1.0000   1.0000   1.0000   1.0000   1.0000   1.0000   1.0000
     1.0000   1.0000   1.0000   1.0000   1.0000   1.0000   1.0000   1.0000
     1.0000   1.0000   1.0000   1.0000   1.0000   1.0000   1.0000   1.0000
     1.0000   1.0000   1.0000   1.0000   1.0000   1.0000   1.0000   1.0000
     1.0000   1.0000   1.0000   1.0000   1.0000   1.0000   1.0000   1.0000
     1.0000   1.0000   1.0000   1.0000   1.0000   0.0000   0.0000   0.0000
     0.0000   0.0000   0.0000   0.0000   0.0000   0.0000   0.0000   0.0000
     0.0000   0.0000   0.0000   0.0000   0.0000   0.0000   0.0000   0.0000
     0.0000   0.0000   0.0000   0.0000   0.0000   0.0000   0.0000   0.0000

          k = 0.0000 0.0000 0.0122 ( 36941 PWs)   bands (ev):

   -18.2688 -18.2688 -18.2688 -18.2385 -18.2385  -5.8671  -5.3265  -4.8840
    -4.7610  -4.7610  -4.7591  -4.3838  -4.2717  -4.2717  -4.2703  -4.2344
    -3.9148  -3.8243  -3.8243  -3.8225  -3.6763  -3.6185  -3.6185  -3.6181
    -3.4061  -3.3554  -3.3554  -3.3545  -2.7030  -2.2621  -2.1845  -2.1845
    -2.1838  -1.8142  -1.7418  -1.7418  -1.7389  -1.6568  -1.6232  -1.6232
    -1.6217  -1.0964  -1.0434  -1.0434  -1.0416  -0.8013  -0.7742  -0.7741
    -0.7741  -0.7616  -0.0356   0.0098   0.0098   0.0118   0.1966   0.2223
     0.2247   0.2247   1.1196   1.1570   1.1570   1.1570   1.3991   1.8672
     1.8672   1.8689   1.8719   1.9467   1.9491   1.9491   1.9530   2.2453
     2.2829   2.2852   2.2852   2.3009   2.3015   2.3015   2.3060   2.7154
     2.7231   2.7231   2.7254   2.7336   2.7336   2.7346   2.7348   2.7528
     2.7561   2.7561   2.7569   3.0106   3.0112   3.0112   3.0123   3.2662
     3.2662   3.6318   3.7540   3.7540   3.8883   3.8921   3.8955   3.8955
     4.2150   4.2163   4.2163   4.2184   4.3305   4.3305   4.3317   4.3367
     4.4373   4.4379   4.4379   4.4392   4.6802   4.6802   4.7499   4.7533
     4.7544   4.7544   4.8302   4.8302   4.8313   4.8352   4.8415   4.8447
     4.8484   4.8484   5.6321   5.8026   5.8026   6.5439   6.7803   6.9908
     7.0300   7.0466   7.0466   7.0467   7.4943   7.5097   7.5187   7.5187
     7.5428   7.7970   7.8470   7.8470   7.8513   8.2216   8.3792   8.4106
     8.4106   8.4132   8.4211   8.4349   8.4349   8.4397   8.4650   8.9424

     occupation numbers 
     1.0000   1.0000   1.0000   1.0000   1.0000   1.0000   1.0000   1.0000
     1.0000   1.0000   1.0000   1.0000   1.0000   1.0000   1.0000   1.0000
     1.0000   1.0000   1.0000   1.0000   1.0000   1.0000   1.0000   1.0000
     1.0000   1.0000   1.0000   1.0000   1.0000   1.0000   1.0000   1.0000
     1.0000   1.0000   1.0000   1.0000   1.0000   1.0000   1.0000   1.0000
     1.0000   1.0000   1.0000   1.0000   1.0000   1.0000   1.0000   1.0000
     1.0000   1.0000   1.0000   1.0000   1.0000   1.0000   1.0000   1.0000
     1.0000   1.0000   1.0000   1.0000   1.0000   1.0000   1.0000   1.0000
     1.0000   1.0000   1.0000   1.0000   1.0000   1.0000   1.0000   1.0000
     1.0000   1.0000   1.0000   1.0000   1.0000   1.0000   1.0000   1.0000
     1.0000   1.0000   1.0000   1.0000   1.0000   1.0000   1.0000   1.0000
     1.0000   1.0000   1.0000   1.0000   1.0000   1.0000   1.0000   1.0000
     1.0000   1.0000   1.0000   1.0000   1.0000   1.0000   1.0000   1.0000
     1.0000   1.0000   1.0000   1.0000   1.0000   1.0000   1.0000   1.0000
     1.0000   1.0000   1.0000   1.0000   1.0000   1.0000   1.0000   1.0000
     1.0000   1.0000   1.0000   1.0000   1.0000   1.0000   1.0000   1.0000
     1.0000   1.0000   1.0000   1.0000   1.0000   0.0000   0.0000   0.0000
     0.0000   0.0000   0.0000   0.0000   0.0000   0.0000   0.0000   0.0000
     0.0000   0.0000   0.0000   0.0000   0.0000   0.0000   0.0000   0.0000
     0.0000   0.0000   0.0000   0.0000   0.0000   0.0000   0.0000   0.0000

          k = 0.0000 0.0000-0.0244 ( 36906 PWs)   bands (ev):

   -18.2688 -18.2688 -18.2688 -18.2385 -18.2385  -5.6933  -5.6307  -4.7872
    -4.5771  -4.5771  -4.5754  -4.5742  -4.5737  -4.5737  -4.5732  -3.8963
    -3.7303  -3.7303  -3.7278  -3.7272  -3.7270  -3.7270  -3.7270  -3.5317
    -3.5126  -2.9101  -2.7895  -2.7851  -2.7851  -2.7844  -2.7844  -2.7843
    -2.7839  -1.7981  -1.6871  -1.6871  -1.6826  -1.6821  -1.6820  -1.6820
    -1.6820  -0.6351  -0.5200  -0.5200  -0.5166  -0.5166  -0.5163  -0.5162
    -0.5161  -0.3744  -0.3456  -0.3434  -0.3434  -0.3372  -0.3369  -0.3360
    -0.3360   0.2851   0.3051   1.6800   1.7535   1.7535   1.7556   1.7560
     1.7582   1.7604   1.7604   1.7970   1.7970   1.7990   1.8037   1.8038
     1.8038   1.8040   1.8059   2.6205   2.6205   2.6208   2.6247   2.6252
     2.6272   2.6272   2.6296   3.3221   3.3237   3.3264   3.3264   3.3280
     3.3308   3.3345   3.3345   3.4473   3.4473   3.4530   3.4530   3.4608
     3.4618   3.4618   3.4622   3.4642   3.4657   3.4657   3.4674   3.5651
     3.5792   3.5792   3.5819   3.5836   3.5853   3.5853   3.5857   4.6233
     4.6260   4.6260   4.6279   4.6307   4.6307   4.6317   4.6397   4.6940
     4.7174   4.7926   4.7962   4.7963   4.7963   4.7963   4.7996   4.8031
     4.8031   5.2503   5.2503   5.2607   5.2607   6.5776   6.5917   7.5057
     7.5105   7.9258   7.9437   7.9454   7.9454   7.9484   7.9651   7.9669
     7.9669   8.0110   8.0239   8.2749   8.3279   8.3279   8.3301   8.3322
     8.3339   8.3339   8.3712   8.4356   8.4403   8.4407   8.4408   8.4454

     occupation numbers 
     1.0000   1.0000   1.0000   1.0000   1.0000   1.0000   1.0000   1.0000
     1.0000   1.0000   1.0000   1.0000   1.0000   1.0000   1.0000   1.0000
     1.0000   1.0000   1.0000   1.0000   1.0000   1.0000   1.0000   1.0000
     1.0000   1.0000   1.0000   1.0000   1.0000   1.0000   1.0000   1.0000
     1.0000   1.0000   1.0000   1.0000   1.0000   1.0000   1.0000   1.0000
     1.0000   1.0000   1.0000   1.0000   1.0000   1.0000   1.0000   1.0000
     1.0000   1.0000   1.0000   1.0000   1.0000   1.0000   1.0000   1.0000
     1.0000   1.0000   1.0000   1.0000   1.0000   1.0000   1.0000   1.0000
     1.0000   1.0000   1.0000   1.0000   1.0000   1.0000   1.0000   1.0000
     1.0000   1.0000   1.0000   1.0000   1.0000   1.0000   1.0000   1.0000
     1.0000   1.0000   1.0000   1.0000   1.0000   1.0000   1.0000   1.0000
     1.0000   1.0000   1.0000   1.0000   1.0000   1.0000   1.0000   1.0000
     1.0000   1.0000   1.0000   1.0000   1.0000   1.0000   1.0000   1.0000
     1.0000   1.0000   1.0000   1.0000   1.0000   1.0000   1.0000   1.0000
     1.0000   1.0000   1.0000   1.0000   1.0000   1.0000   1.0000   1.0000
     1.0000   1.0000   1.0000   1.0000   1.0000   1.0000   1.0000   1.0000
     1.0000   1.0000   1.0000   1.0000   1.0000   0.0000   0.0000   0.0000
     0.0000   0.0000   0.0000   0.0000   0.0000   0.0000   0.0000   0.0000
     0.0000   0.0000   0.0000   0.0000   0.0000   0.0000   0.0000   0.0000
     0.0000   0.0000   0.0000   0.0000   0.0000   0.0000   0.0000   0.0000

          k = 0.0000 0.0122 0.0122 ( 36919 PWs)   bands (ev):

   -18.2688 -18.2688 -18.2688 -18.2385 -18.2385  -5.8001  -5.2912  -5.2272
    -4.7943  -4.7074  -4.6997  -4.3471  -4.2225  -4.2210  -4.2198  -4.1838
    -4.1682  -3.9031  -3.8590  -3.7522  -3.7224  -3.4882  -3.4311  -3.3856
    -3.3486  -3.3484  -3.3473  -2.9424  -2.6817  -2.6458  -2.4413  -2.3902
    -2.3758  -2.3663  -2.0562  -2.0266  -1.8437  -1.6291  -1.2777  -1.2433
    -0.9693  -0.9146  -0.8981  -0.8849  -0.8716  -0.8687  -0.7816  -0.7651
    -0.4609  -0.4154  -0.4062  -0.2768  -0.2492  -0.2455  -0.2444   0.4651
     0.4898   0.7497   0.7765   0.7820   0.7822   1.2591   1.2799   1.6854
     1.8363   1.8415   1.8449   1.9033   1.9081   1.9682   1.9853   2.1318
     2.1366   2.3257   2.3315   2.3327   2.3354   2.3851   2.3861   2.5112
     2.6953   2.6965   2.9524   2.9556   2.9747   2.9761   3.0357   3.0370
     3.1247   3.1267   3.1881   3.1972   3.1987   3.1995   3.2281   3.2469
     3.2531   3.3140   3.4847   3.4851   3.7870   3.7890   3.9117   3.9149
     4.0362   4.0374   4.0709   4.0721   4.1296   4.2487   4.2547   4.2595
     4.2596   4.2635   4.2635   4.4013   4.4064   4.6064   4.6077   4.6126
     4.6186   4.7358   4.7408   4.8232   4.8261   4.8263   4.8288   4.9828
     4.9839   5.0046   5.3308   5.5351   6.0044   6.8023   6.9242   6.9354
     7.1798   7.1868   7.3276   7.3379   7.7041   7.7178   7.7525   7.8286
     7.8674   7.8904   7.9331   7.9344   8.2437   8.2686   8.2979   8.3128
     8.4399   8.4557   8.4562   8.4586   8.4877   8.5039   8.7353   8.8275

     occupation numbers 
     1.0000   1.0000   1.0000   1.0000   1.0000   1.0000   1.0000   1.0000
     1.0000   1.0000   1.0000   1.0000   1.0000   1.0000   1.0000   1.0000
     1.0000   1.0000   1.0000   1.0000   1.0000   1.0000   1.0000   1.0000
     1.0000   1.0000   1.0000   1.0000   1.0000   1.0000   1.0000   1.0000
     1.0000   1.0000   1.0000   1.0000   1.0000   1.0000   1.0000   1.0000
     1.0000   1.0000   1.0000   1.0000   1.0000   1.0000   1.0000   1.0000
     1.0000   1.0000   1.0000   1.0000   1.0000   1.0000   1.0000   1.0000
     1.0000   1.0000   1.0000   1.0000   1.0000   1.0000   1.0000   1.0000
     1.0000   1.0000   1.0000   1.0000   1.0000   1.0000   1.0000   1.0000
     1.0000   1.0000   1.0000   1.0000   1.0000   1.0000   1.0000   1.0000
     1.0000   1.0000   1.0000   1.0000   1.0000   1.0000   1.0000   1.0000
     1.0000   1.0000   1.0000   1.0000   1.0000   1.0000   1.0000   1.0000
     1.0000   1.0000   1.0000   1.0000   1.0000   1.0000   1.0000   1.0000
     1.0000   1.0000   1.0000   1.0000   1.0000   1.0000   1.0000   1.0000
     1.0000   1.0000   1.0000   1.0000   1.0000   1.0000   1.0000   1.0000
     1.0000   1.0000   1.0000   1.0000   1.0000   1.0000   1.0000   1.0000
     1.0000   1.0000   1.0000   1.0000   1.0000   0.0000   0.0000   0.0000
     0.0000   0.0000   0.0000   0.0000   0.0000   0.0000   0.0000   0.0000
     0.0000   0.0000   0.0000   0.0000   0.0000   0.0000   0.0000   0.0000
     0.0000   0.0000   0.0000   0.0000   0.0000   0.0000   0.0000   0.0000

          k = 0.0000 0.0122-0.0244 ( 36970 PWs)   bands (ev):

   -18.2688 -18.2688 -18.2688 -18.2386 -18.2385  -5.6291  -5.5637  -5.0946
    -5.0319  -4.6292  -4.5193  -4.5165  -4.5159  -4.1790  -4.0773  -4.0752
    -4.0750  -4.0176  -3.9966  -3.5266  -3.4617  -3.4039  -3.3524  -3.3515
    -3.3512  -3.1106  -3.0793  -2.8983  -2.8419  -2.8401  -2.8401  -2.5660
    -2.5311  -2.4869  -2.4694  -1.9425  -1.9147  -1.4739  -1.4475  -0.9112
    -0.8616  -0.8203  -0.7966  -0.6975  -0.6569  -0.6556  -0.6556  -0.6373
    -0.6279  -0.6266  -0.6253  -0.2051  -0.1833   0.1187   0.1481   0.1485
     0.1489   0.2362   0.2523   0.9202   0.9394   1.3634   1.3932   1.3948
     1.3968   1.6371   1.6393   2.0487   2.0522   2.0549   2.0573   2.0741
     2.0757   2.1705   2.1711   2.5418   2.5563   2.5669   2.5713   2.8585
     2.8623   2.9352   2.9356   3.1069   3.1149   3.1184   3.1187   3.1950
     3.1975   3.2309   3.2310   3.3062   3.3100   3.3823   3.3855   3.5661
     3.5670   3.5689   3.5704   3.6487   3.6505   3.6900   3.6930   3.6951
     3.6955   3.8346   3.8380   3.8984   3.8986   3.9816   3.9906   3.9917
     3.9955   4.1428   4.1559   4.3907   4.3924   4.3938   4.3953   4.5679
     4.5712   4.5718   4.5768   4.7912   4.7925   4.7937   4.7978   4.9785
     4.9871   5.3438   5.3451   5.6393   5.6409   6.9753   6.9896   7.2843
     7.2938   7.7543   7.7682   7.8130   7.8166   7.8626   7.8749   8.1293
     8.1352   8.1938   8.2018   8.2843   8.2912   8.2954   8.3108   8.3389
     8.3689   8.3702   8.3826   8.3828   8.4023   8.5211   8.5273   8.5281

     occupation numbers 
     1.0000   1.0000   1.0000   1.0000   1.0000   1.0000   1.0000   1.0000
     1.0000   1.0000   1.0000   1.0000   1.0000   1.0000   1.0000   1.0000
     1.0000   1.0000   1.0000   1.0000   1.0000   1.0000   1.0000   1.0000
     1.0000   1.0000   1.0000   1.0000   1.0000   1.0000   1.0000   1.0000
     1.0000   1.0000   1.0000   1.0000   1.0000   1.0000   1.0000   1.0000
     1.0000   1.0000   1.0000   1.0000   1.0000   1.0000   1.0000   1.0000
     1.0000   1.0000   1.0000   1.0000   1.0000   1.0000   1.0000   1.0000
     1.0000   1.0000   1.0000   1.0000   1.0000   1.0000   1.0000   1.0000
     1.0000   1.0000   1.0000   1.0000   1.0000   1.0000   1.0000   1.0000
     1.0000   1.0000   1.0000   1.0000   1.0000   1.0000   1.0000   1.0000
     1.0000   1.0000   1.0000   1.0000   1.0000   1.0000   1.0000   1.0000
     1.0000   1.0000   1.0000   1.0000   1.0000   1.0000   1.0000   1.0000
     1.0000   1.0000   1.0000   1.0000   1.0000   1.0000   1.0000   1.0000
     1.0000   1.0000   1.0000   1.0000   1.0000   1.0000   1.0000   1.0000
     1.0000   1.0000   1.0000   1.0000   1.0000   1.0000   1.0000   1.0000
     1.0000   1.0000   1.0000   1.0000   1.0000   1.0000   1.0000   1.0000
     1.0000   1.0000   1.0000   1.0000   1.0000   0.0000   0.0000   0.0000
     0.0000   0.0000   0.0000   0.0000   0.0000   0.0000   0.0000   0.0000
     0.0000   0.0000   0.0000   0.0000   0.0000   0.0000   0.0000   0.0000
     0.0000   0.0000   0.0000   0.0000   0.0000   0.0000   0.0000   0.0000

          k = 0.0000-0.0244-0.0244 ( 37020 PWs)   bands (ev):

   -18.2688 -18.2688 -18.2688 -18.2386 -18.2385  -5.4839  -5.3638  -5.3638
    -5.3627  -4.5409  -4.3518  -4.3471  -4.3471  -4.3459  -4.3459  -4.3459
    -4.3457  -3.5010  -3.3157  -3.3157  -3.3102  -3.3102  -3.3102  -3.3101
    -3.3101  -3.1184  -3.0317  -3.0317  -3.0298  -3.0295  -3.0294  -3.0290
    -3.0290  -2.2285  -2.1724  -2.1711  -2.1711  -1.2342  -1.1785  -1.1736
    -1.1736  -0.8139  -0.7502  -0.7502  -0.7482  -0.7434  -0.7428  -0.7424
    -0.7424  -0.0072   0.0863   0.0876   0.0876   0.0878   0.0878   0.0881
     0.0884   0.7035   0.7518   0.7518   0.7532   0.7569   0.7584   0.7584
     0.7616   1.7251   1.7251   1.7261   1.7310   2.5666   2.5836   2.5837
     2.5837   2.5867   2.5904   2.5904   2.5904   2.6736   2.6736   2.6769
     2.6776   2.6777   2.6798   2.6799   2.6799   3.2838   3.2869   3.2876
     3.2876   3.2898   3.2898   3.2909   3.2917   3.3316   3.3572   3.3644
     3.3644   3.6318   3.6318   3.6337   3.6354   3.8896   3.8896   3.8938
     3.8942   3.8948   3.8948   3.8975   3.8986   4.1914   4.2089   4.2097
     4.2097   4.2123   4.2128   4.2128   4.2211   4.4169   4.4180   4.4180
     4.4298   4.4700   4.4700   4.4709   4.4727   4.4728   4.4742   4.4818
     4.4818   5.7685   5.7698   5.7802   5.7802   7.1682   7.1682   7.1693
     7.1896   7.9058   7.9261   7.9283   7.9283   7.9340   7.9430   7.9507
     7.9507   8.2028   8.2230   8.2240   8.2240   8.2249   8.2296   8.2296
     8.2659   8.6098   8.6171   8.6186   8.6186   8.6195   8.6371   8.6371

     occupation numbers 
     1.0000   1.0000   1.0000   1.0000   1.0000   1.0000   1.0000   1.0000
     1.0000   1.0000   1.0000   1.0000   1.0000   1.0000   1.0000   1.0000
     1.0000   1.0000   1.0000   1.0000   1.0000   1.0000   1.0000   1.0000
     1.0000   1.0000   1.0000   1.0000   1.0000   1.0000   1.0000   1.0000
     1.0000   1.0000   1.0000   1.0000   1.0000   1.0000   1.0000   1.0000
     1.0000   1.0000   1.0000   1.0000   1.0000   1.0000   1.0000   1.0000
     1.0000   1.0000   1.0000   1.0000   1.0000   1.0000   1.0000   1.0000
     1.0000   1.0000   1.0000   1.0000   1.0000   1.0000   1.0000   1.0000
     1.0000   1.0000   1.0000   1.0000   1.0000   1.0000   1.0000   1.0000
     1.0000   1.0000   1.0000   1.0000   1.0000   1.0000   1.0000   1.0000
     1.0000   1.0000   1.0000   1.0000   1.0000   1.0000   1.0000   1.0000
     1.0000   1.0000   1.0000   1.0000   1.0000   1.0000   1.0000   1.0000
     1.0000   1.0000   1.0000   1.0000   1.0000   1.0000   1.0000   1.0000
     1.0000   1.0000   1.0000   1.0000   1.0000   1.0000   1.0000   1.0000
     1.0000   1.0000   1.0000   1.0000   1.0000   1.0000   1.0000   1.0000
     1.0000   1.0000   1.0000   1.0000   1.0000   1.0000   1.0000   1.0000
     1.0000   1.0000   1.0000   1.0000   1.0000   0.0000   0.0000   0.0000
     0.0000   0.0000   0.0000   0.0000   0.0000   0.0000   0.0000   0.0000
     0.0000   0.0000   0.0000   0.0000   0.0000   0.0000   0.0000   0.0000
     0.0000   0.0000   0.0000   0.0000   0.0000   0.0000   0.0000   0.0000

          k = 0.0122 0.0122 0.0122 ( 36954 PWs)   bands (ev):

   -18.2688 -18.2688 -18.2688 -18.2385 -18.2385  -5.7337  -5.2544  -5.1625
    -5.1625  -4.7345  -4.6533  -4.6533  -4.2596  -4.1663  -4.1122  -4.1122
    -3.8086  -3.6874  -3.6874  -3.6845  -3.6843  -3.6843  -3.5192  -3.4821
    -3.4821  -3.0337  -2.9785  -2.9785  -2.6737  -2.6139  -2.6139  -2.4995
    -2.4353  -2.4353  -2.4339  -2.4337  -2.4337  -0.9985  -0.8818  -0.8818
    -0.8789  -0.8783  -0.8783  -0.8013  -0.7771  -0.7771  -0.7216  -0.7128
    -0.7128  -0.6188  -0.5943  -0.5943   0.0798   0.1539   0.2017   0.2017
     0.2043   0.2057   0.2057   1.0749   1.1074   1.1074   1.3978   1.4160
     1.4160   1.9662   1.9671   1.9671   1.9727   1.9745   1.9745   2.0340
     2.0401   2.0401   2.6033   2.6058   2.6058   2.7037   2.7132   2.7132
     2.7172   2.7197   2.7197   2.7984   2.8208   2.8208   3.0825   3.0840
     3.0840   3.0857   3.0862   3.0862   3.3703   3.3739   3.3743   3.3743
     3.3758   3.3758   3.7277   3.7332   3.7332   3.7612   3.7646   3.7646
     3.8495   3.8506   3.8506   4.1238   4.1239   4.1239   4.1255   4.1255
     4.1264   4.1728   4.1747   4.1747   4.4443   4.4964   4.5013   4.5013
     4.7387   4.7439   4.7439   4.8065   4.8065   4.8100   4.9774   4.9774
     5.2873   5.2939   5.2939   5.7769   5.7769   6.8516   6.8693   6.8693
     7.3228   7.3357   7.3357   7.6025   7.8052   7.8268   7.8268   7.9419
     7.9506   7.9506   8.1322   8.1455   8.1455   8.1549   8.1799   8.1799
     8.3653   8.3656   8.3656   8.3658   8.3882   8.3882   8.4780   8.6674

     occupation numbers 
     1.0000   1.0000   1.0000   1.0000   1.0000   1.0000   1.0000   1.0000
     1.0000   1.0000   1.0000   1.0000   1.0000   1.0000   1.0000   1.0000
     1.0000   1.0000   1.0000   1.0000   1.0000   1.0000   1.0000   1.0000
     1.0000   1.0000   1.0000   1.0000   1.0000   1.0000   1.0000   1.0000
     1.0000   1.0000   1.0000   1.0000   1.0000   1.0000   1.0000   1.0000
     1.0000   1.0000   1.0000   1.0000   1.0000   1.0000   1.0000   1.0000
     1.0000   1.0000   1.0000   1.0000   1.0000   1.0000   1.0000   1.0000
     1.0000   1.0000   1.0000   1.0000   1.0000   1.0000   1.0000   1.0000
     1.0000   1.0000   1.0000   1.0000   1.0000   1.0000   1.0000   1.0000
     1.0000   1.0000   1.0000   1.0000   1.0000   1.0000   1.0000   1.0000
     1.0000   1.0000   1.0000   1.0000   1.0000   1.0000   1.0000   1.0000
     1.0000   1.0000   1.0000   1.0000   1.0000   1.0000   1.0000   1.0000
     1.0000   1.0000   1.0000   1.0000   1.0000   1.0000   1.0000   1.0000
     1.0000   1.0000   1.0000   1.0000   1.0000   1.0000   1.0000   1.0000
     1.0000   1.0000   1.0000   1.0000   1.0000   1.0000   1.0000   1.0000
     1.0000   1.0000   1.0000   1.0000   1.0000   1.0000   1.0000   1.0000
     1.0000   1.0000   1.0000   1.0000   1.0000   0.0000   0.0000   0.0000
     0.0000   0.0000   0.0000   0.0000   0.0000   0.0000   0.0000   0.0000
     0.0000   0.0000   0.0000   0.0000   0.0000   0.0000   0.0000   0.0000
     0.0000   0.0000   0.0000   0.0000   0.0000   0.0000   0.0000   0.0000

          k = 0.0122 0.0122-0.0244 ( 36904 PWs)   bands (ev):

   -18.2688 -18.2688 -18.2688 -18.2385 -18.2385  -5.5658  -5.4970  -5.0781
    -4.9711  -4.9701  -4.9688  -4.5326  -4.4815  -4.0574  -3.9486  -3.9473
    -3.9465  -3.6784  -3.5930  -3.5900  -3.5898  -3.4421  -3.4142  -3.2153
    -3.1630  -3.1118  -3.0745  -3.0712  -3.0712  -2.7184  -2.6483  -2.6482
    -2.6469  -2.5632  -2.5315  -2.5289  -2.5288  -0.9410  -0.8196  -0.8166
    -0.8164  -0.8132  -0.8095  -0.8057  -0.8049  -0.7749  -0.7712  -0.3976
    -0.3426  -0.3390  -0.3390  -0.3150  -0.3078  -0.3029  -0.3014   0.1558
     0.1767   0.6482   0.6902   0.6923   0.6929   0.7181   0.7235   1.8955
     1.9014   1.9026   1.9043   2.0835   2.1088   2.1132   2.1163   2.1950
     2.2002   2.2012   2.2023   2.2913   2.2927   2.2954   2.2977   2.8275
     2.8332   2.8885   2.8931   3.0914   3.0988   3.0989   3.1022   3.3042
     3.3062   3.3063   3.3076   3.3098   3.3151   3.3186   3.3190   3.4834
     3.4868   3.4881   3.4908   3.5523   3.5571   3.6307   3.6413   3.7150
     3.7157   3.7169   3.7178   3.9618   3.9619   3.9646   3.9662   4.2798
     4.2808   4.2818   4.2836   4.2871   4.2881   4.2898   4.2980   4.3012
     4.3041   4.5142   4.5201   5.1685   5.1741   5.2367   5.2383   5.2421
     5.2463   5.2773   5.2887   5.5113   5.5153   7.0354   7.0488   7.3476
     7.3650   7.3659   7.3672   7.8157   7.8407   7.8411   7.8444   7.8854
     7.9002   7.9088   7.9119   8.0010   8.0107   8.0296   8.0526   8.2902
     8.3006   8.3291   8.3478   8.3483   8.3517   8.4797   8.4922   8.5620

     occupation numbers 
     1.0000   1.0000   1.0000   1.0000   1.0000   1.0000   1.0000   1.0000
     1.0000   1.0000   1.0000   1.0000   1.0000   1.0000   1.0000   1.0000
     1.0000   1.0000   1.0000   1.0000   1.0000   1.0000   1.0000   1.0000
     1.0000   1.0000   1.0000   1.0000   1.0000   1.0000   1.0000   1.0000
     1.0000   1.0000   1.0000   1.0000   1.0000   1.0000   1.0000   1.0000
     1.0000   1.0000   1.0000   1.0000   1.0000   1.0000   1.0000   1.0000
     1.0000   1.0000   1.0000   1.0000   1.0000   1.0000   1.0000   1.0000
     1.0000   1.0000   1.0000   1.0000   1.0000   1.0000   1.0000   1.0000
     1.0000   1.0000   1.0000   1.0000   1.0000   1.0000   1.0000   1.0000
     1.0000   1.0000   1.0000   1.0000   1.0000   1.0000   1.0000   1.0000
     1.0000   1.0000   1.0000   1.0000   1.0000   1.0000   1.0000   1.0000
     1.0000   1.0000   1.0000   1.0000   1.0000   1.0000   1.0000   1.0000
     1.0000   1.0000   1.0000   1.0000   1.0000   1.0000   1.0000   1.0000
     1.0000   1.0000   1.0000   1.0000   1.0000   1.0000   1.0000   1.0000
     1.0000   1.0000   1.0000   1.0000   1.0000   1.0000   1.0000   1.0000
     1.0000   1.0000   1.0000   1.0000   1.0000   1.0000   1.0000   1.0000
     1.0000   1.0000   1.0000   1.0000   1.0000   0.0000   0.0000   0.0000
     0.0000   0.0000   0.0000   0.0000   0.0000   0.0000   0.0000   0.0000
     0.0000   0.0000   0.0000   0.0000   0.0000   0.0000   0.0000   0.0000
     0.0000   0.0000   0.0000   0.0000   0.0000   0.0000   0.0000   0.0000

          k = 0.0122-0.0244-0.0244 ( 36900 PWs)   bands (ev):

   -18.2688 -18.2688 -18.2688 -18.2385 -18.2385  -5.4260  -5.2986  -5.2986
    -5.2975  -4.8765  -4.7843  -4.7843  -4.7835  -3.9283  -3.8043  -3.8043
    -3.8039  -3.4653  -3.2806  -3.2806  -3.2754  -3.2754  -3.2753  -3.2752
    -3.2752  -3.1499  -3.0813  -3.0813  -3.0787  -3.0786  -3.0784  -3.0781
    -3.0781  -2.5991  -2.5490  -2.5490  -2.5490  -0.9260  -0.8501  -0.8490
    -0.8490  -0.6913  -0.6296  -0.6296  -0.6278  -0.6238  -0.6232  -0.6228
    -0.6228  -0.1275  -0.0407  -0.0404  -0.0404  -0.0387  -0.0383  -0.0381
    -0.0381   0.1666   0.1874   0.1874   0.1892   1.3712   1.3961   1.3961
     1.3965   1.9288   1.9305   1.9305   1.9358   2.5243   2.5426   2.5426
     2.5427   2.5476   2.5501   2.5501   2.5508   2.5598   2.5598   2.5622
     2.5635   2.5643   2.5655   2.5655   2.5656   2.8457   2.8664   2.8704
     2.8704   3.3021   3.3118   3.3118   3.3151   3.5410   3.5416   3.5420
     3.5420   3.5453   3.5460   3.5460   3.5472   3.6878   3.6878   3.6893
[...]
Si       0.500011608   0.750000642   0.249999358
Si       0.499988392   0.750000642   0.750000642
Si       0.250293806  -0.000016929   0.250293806
Si       0.250293806   0.000016929   0.749706194
Si       0.249999358   0.499988392   0.249999358
Si       0.249999358   0.500011608   0.750000642
Si       0.749706194   0.000016929   0.250293806
Si       0.749706194  -0.000016929   0.749706194
Si       0.750000642   0.500011608   0.249999358
Si       0.750000642   0.499988392   0.750000642
Si       0.250293806   0.250293806  -0.000016929
Si       0.249999358   0.249999358   0.499988392
Si       0.250293806   0.749706194   0.000016929
Si       0.249999358   0.750000642   0.500011608
Si       0.749706194   0.250293806   0.000016929
Si       0.750000642   0.249999358   0.500011608
Si       0.749706194   0.749706194  -0.000016929
Si       0.750000642   0.750000642   0.499988392
Si       0.375112903   0.375112903   0.124936824
Si       0.374995112   0.374995112   0.625004888
Si       0.374994988   0.875030976   0.124969024
Si       0.375112903   0.875063176   0.624887097
Si       0.875030976   0.374994988   0.124969024
Si       0.875063176   0.375112903   0.624887097
Si       0.873393989   0.873393989   0.126606011
Si       0.875030976   0.875030976   0.625005012
Si       0.375112903   0.124936824   0.375112903
Si       0.374994988   0.124969024   0.875030976
Si       0.374995112   0.625004888   0.374995112
Si       0.375112903   0.624887097   0.875063176
Si       0.875030976   0.124969024   0.374994988
Si       0.873393989   0.126606011   0.873393989
Si       0.875063176   0.624887097   0.375112903
Si       0.875030976   0.625005012   0.875030976
Si       0.124936824   0.375112903   0.375112903
Si       0.124969024   0.374994988   0.875030976
Si       0.124969024   0.875030976   0.374994988
Si       0.126606011   0.873393989   0.873393989
Si       0.625004888   0.374995112   0.374995112
Si       0.624887097   0.375112903   0.875063176
Si       0.624887097   0.875063176   0.375112903
Si       0.625005012   0.875030976   0.875030976
Si       0.126606011   0.126606011   0.126606011
Si       0.124969024   0.124969024   0.625005012
Si       0.124969024   0.625005012   0.124969024
Si       0.124936824   0.624887097   0.624887097
Si       0.625005012   0.124969024   0.124969024
Si       0.624887097   0.124936824   0.624887097
Si       0.624887097   0.624887097   0.124936824
Si       0.625004888   0.625004888   0.625004888
End final coordinates


--------------------------------------------------------------------------------------------------------------------------------------------
name                                                                 count      total        min        max    average    self (%)
--------------------------------------------------------------------------------------------------------------------------------------------
qe|electrons                                                      :      6   200.8154    29.9115    35.2013    33.4692       0.00
qe|electrons|init                                                 :      6    12.4221     1.9588     2.2662     2.0704      12.28
qe|electrons|scf                                                  :      6   188.3141    27.6317    33.1789    31.3857       3.49
qe|init_run|hinit0                                                :      6     0.3742     0.0589     0.0786     0.0624       0.21
qe|init_run|hinit0|init_igk                                       :      6     0.0417     0.0067     0.0082     0.0069     100.00
qe|init_run|hinit0|init_us_1                                      :      6     0.0162     0.0004     0.0143     0.0027     100.00
qe|init_run|hinit0|struc_fact                                     :      6     0.3154     0.0518     0.0554     0.0526     100.00
qe|mix                                                            :     83    10.1959     0.0128     0.1570     0.1228     100.00
qe|run_pwscf                                                      :      1   239.4384   239.4384   239.4384   239.4384       0.73
qe|run_pwscf|electrons                                            :      6   200.8161    29.9122    35.2013    33.4694       0.00
qe|run_pwscf|forces                                               :      6     5.7828     0.9494     0.9982     0.9638       7.54
qe|run_pwscf|hinit1                                               :      5     0.4468     0.0869     0.0962     0.0894     100.00
qe|run_pwscf|init_run                                             :      6     3.5840     0.5690     0.6966     0.5973      89.56
qe|run_pwscf|ions                                                 :      6     1.7959     0.0819     0.8315     0.2993     100.00
qe|run_pwscf|setup                                                :      6     0.0353     0.0039     0.0156     0.0059     100.00
qe|run_pwscf|setup_sirius                                         :      6     6.9931     0.9402     2.2584     1.1655       0.92
qe|run_pwscf|stress                                               :      6    18.2486     2.9918     3.0651     3.0414       0.17
qe|stres_cc|deriv_drhoc                                           :     12     0.0701     0.0055     0.0065     0.0058      35.24
qe|stres_cc|drhoc                                                 :     12     0.0739     0.0049     0.0075     0.0062      44.20
qe|stress_xc                                                      :      6     0.9034     0.1467     0.1631     0.1506       0.02
qe|stress_xc|cc                                                   :      6     0.9031     0.1467     0.1631     0.1505      84.04
qe|v_ha                                                           :     89     3.2514     0.0360     0.0483     0.0365     100.00
qe|v_xc                                                           :     89     0.7735     0.0083     0.0168     0.0087     100.00
qe|veff                                                           :     83    14.6658     0.1725     0.1923     0.1767      37.46
sddk::FFT3D::FFT3D                                                :     12     0.6718     0.0038     0.6033     0.0560     100.00
sddk::FFT3D::prepare                                              :    522     0.8911     0.0014     0.0068     0.0017       0.42
sddk::FFT3D::prepare|gpu                                          :    522     0.8817     0.0014     0.0068     0.0017     100.00
sddk::FFT3D::transform                                            : 174506    55.9932     0.0003     0.0070     0.0003       0.77
sddk::FFT3D::transform_xy                                         : 174506    39.0363     0.0002     0.0007     0.0002     100.00
sddk::FFT3D::transform_z                                          : 174506    16.5265     0.0000     0.0026     0.0001       1.65
sddk::FFT3D::transform_z_serial                                   : 174506    12.2794     0.0000     0.0016     0.0001     100.00
sddk::FFT3D::transform_z|comm|d-1|DtoH                            :    119     0.0516     0.0003     0.0007     0.0004     100.00
sddk::FFT3D::transform_z|comm|d1|HtoD                             :  22469     3.9221     0.0002     0.0008     0.0002     100.00
sddk::Gvec::find_gvec_shells                                      :     24     0.3544     0.0031     0.0423     0.0148     100.00
sddk::Gvec::init                                                  :     24     0.7237     0.0061     0.0847     0.0302      51.03
sddk::matrix_storage::matrix_storage                              :   1056     2.2654     0.0000     0.0451     0.0021     100.00
sddk::remap_gvec_to_shells|init                                   :      6     0.1704     0.0274     0.0316     0.0284     100.00
sddk::wave_functions::inner                                       :   2207     5.4403     0.0001     0.0089     0.0025     100.00
sddk::wave_functions::orthogonalize                               :    617     7.3767     0.0028     0.0378     0.0120      21.80
sddk::wave_functions::transform                                   :   1486     8.1403     0.0012     0.0201     0.0055      99.75
sddk::wave_functions::transform|init                              :   1486     0.0205     0.0000     0.0000     0.0000     100.00
sirius::Atom_type::init                                           :     12     0.0122     0.0006     0.0039     0.0010     100.00
sirius::Augmentation_operator::generate_pw_coeffs                 :     12     3.5181     0.2853     0.2964     0.2932     100.00
sirius::Augmentation_operator_gvec_deriv::generate_pw_coeffs      :     36     5.6284     0.1358     0.1713     0.1563      39.51
sirius::Augmentation_operator_gvec_deriv::generate_pw_coeffs|qpw  :     36     3.4045     0.0917     0.1062     0.0946     100.00
sirius::Augmentation_operator_gvec_deriv|constructor              :      6     1.0098     0.1677     0.1697     0.1683     100.00
sirius::Band::apply_h_o                                           :    795    76.7174     0.0108     0.4686     0.0965       0.03
sirius::Band::diag_pseudo_potential                               :    166   115.6736     0.2813     2.6429     0.6968       0.14
sirius::Band::diag_pseudo_potential_davidson                      :    166   114.9997     0.2775     2.6390     0.6928       1.32
sirius::Band::diag_pseudo_potential_davidson|alloc                :    166     3.1668     0.0184     0.0260     0.0191      86.09
sirius::Band::diag_pseudo_potential_davidson|evp                  :    783    18.5262     0.0087     0.0586     0.0237     100.00
sirius::Band::diag_pseudo_potential_davidson|iter                 :    166   107.0890     0.2311     2.5753     0.6451       0.02
sirius::Band::diag_pseudo_potential_davidson|update_phi           :    186     1.4466     0.0031     0.0271     0.0078       0.49
sirius::Band::diag_pseudo_potential_davidson|wf                   :    166     0.0116     0.0000     0.0094     0.0001      96.74
sirius::Band::get_h_diag                                          :    166     1.7161     0.0099     0.0166     0.0103     100.00
sirius::Band::get_o_diag                                          :    166     1.4525     0.0085     0.0118     0.0087     100.00
sirius::Band::initialize_subspace                                 :      6     8.4462     1.3490     1.5393     1.4077       2.89
sirius::Band::initialize_subspace|kp                              :     12     8.1007     0.5588     0.8372     0.6751      11.46
sirius::Band::initialize_subspace|kp|wf                           :     12     0.5703     0.0455     0.0542     0.0475     100.00
sirius::Band::residuals                                           :    773     4.0708     0.0000     0.0204     0.0053       2.88
sirius::Band::residuals_aux                                       :    651     0.8876     0.0005     0.0021     0.0014     100.00
sirius::Band::set_subspace_mtrx                                   :    973     3.3847     0.0007     0.0095     0.0035       3.79
sirius::Band::solve_for_kset                                      :     83   131.7996     0.5954     5.9491     1.5879      11.00
sirius::Beta_projectors::Beta_projectors                          :     12     0.0637     0.0051     0.0063     0.0053       0.10
sirius::Beta_projectors::generate_pw_coefs_t                      :     12     0.0636     0.0051     0.0063     0.0053     100.00
sirius::Beta_projectors_base::dismiss                             :    392     0.0936     0.0000     0.0039     0.0002     100.00
sirius::Beta_projectors_base::generate                            :   1129     9.0704     0.0029     0.2100     0.0080     100.00
sirius::Beta_projectors_base::inner                               :   1129    12.7419     0.0017     0.0377     0.0113     100.00
sirius::Beta_projectors_base::prepare                             :    392     1.3224     0.0024     0.0227     0.0034     100.00
sirius::Beta_projectors_strain_deriv::generate_pw_coefs_t         :     12     1.0929     0.0904     0.0930     0.0911     100.00
sirius::DFT_ground_state::ewald_energy                            :      6     0.0291     0.0047     0.0052     0.0048     100.00
sirius::Density::add_k_point_contribution_dm                      :    166     3.6075     0.0209     0.0282     0.0217       9.61
sirius::Density::add_k_point_contribution_rg                      :    166    11.8359     0.0690     0.0780     0.0713       4.15
sirius::Density::augment                                          :     83     3.3185     0.0397     0.0441     0.0400       0.37
sirius::Density::generate_pseudo_core_charge_density              :      6     0.1825     0.0286     0.0362     0.0304       0.71
sirius::Density::generate_rho_aug                                 :     83     3.3062     0.0396     0.0439     0.0398     100.00
sirius::Density::generate_valence                                 :     83    21.8284     0.2550     0.2741     0.2630      11.76
sirius::Density::initial_density                                  :      6     0.3287     0.0526     0.0606     0.0548      41.04
sirius::Forces_PS::calc_ewald_forces                              :      6     0.2450     0.0396     0.0445     0.0408     100.00
sirius::Forces_PS::calc_local_forces                              :      6     0.3433     0.0540     0.0604     0.0572      53.30
sirius::Forces_PS::calc_nlcc_force                                :      6     0.1756     0.0290     0.0294     0.0293      63.84
sirius::Forces_PS::calc_nonlocal_forces                           :      6     3.8362     0.6321     0.6587     0.6394      18.90
sirius::Forces_PS::calc_scf_corr_forces                           :      6     0.1281     0.0205     0.0234     0.0213      87.30
sirius::Forces_PS::calc_ultrasoft_forces                          :      6     0.5144     0.0843     0.0892     0.0857      91.31
sirius::K_point::generate_gkvec                                   :     12     0.0754     0.0061     0.0068     0.0063       0.31
sirius::K_point::initialize                                       :     12     0.4432     0.0245     0.0499     0.0369      13.77
sirius::K_point_set::sync_band_energies                           :     83     0.0140     0.0000     0.0015     0.0002     100.00
sirius::Local_operator::apply_h                                   :    795    48.8092     0.0006     0.1761     0.0614       9.59
sirius::Local_operator::prepare                                   :    267     1.9269     0.0011     0.1803     0.0072      50.55
sirius::Non_local_operator::apply                                 :   1590    16.0238     0.0027     0.0284     0.0101     100.00
sirius::Periodic_function::inner                                  :    279     0.1931     0.0003     0.0010     0.0007      60.93
sirius::Potential::Potential                                      :      6     0.4126     0.0600     0.0793     0.0688      13.79
sirius::Potential::generate_D_operator_matrix                     :     89     3.5436     0.0384     0.0464     0.0398     100.00
sirius::Potential::generate_local_potential                       :      6     0.3555     0.0540     0.0702     0.0593       0.49
sirius::Radial_integrals|aug                                      :     12     0.8914     0.0676     0.0822     0.0743     100.00
sirius::Radial_integrals|beta                                     :     12     0.3010     0.0233     0.0294     0.0251     100.00
sirius::Radial_integrals|rho_core_pseudo                          :     42     0.1457     0.0029     0.0044     0.0035     100.00
sirius::Radial_integrals|rho_pseudo                               :     12     0.0325     0.0026     0.0033     0.0027     100.00
sirius::Radial_integrals|vloc                                     :     36     0.9581     0.0238     0.0403     0.0266     100.00
sirius::Simulation_context::initialize                            :      6     6.4690     0.8684     2.1125     1.0782       0.03
sirius::Simulation_context_base::init_atoms_to_grid_idx           :      6     0.0273     0.0043     0.0056     0.0046     100.00
sirius::Simulation_context_base::initialize                       :      6     2.9487     0.2805     1.5349     0.4914      22.68
sirius::Simulation_context_base::make_periodic_function           :     36     0.5410     0.0118     0.0200     0.0150     100.00
sirius::Simulation_parameters::import                             :      6     0.0156     0.0013     0.0086     0.0026     100.00
sirius::Smooth_periodic_function::fft_transform                   :    416     3.3764     0.0029     0.0227     0.0081      78.48
sirius::Smooth_periodic_function::gather_f_pw                     :    267     1.1639     0.0008     0.1693     0.0044     100.00
sirius::Stress|ewald                                              :      6     0.3225     0.0532     0.0543     0.0537     100.00
sirius::Stress|har                                                :      6     0.0259     0.0041     0.0044     0.0043     100.00
sirius::Stress|kin                                                :      6     0.8164     0.1353     0.1373     0.1361     100.00
sirius::Stress|nonloc                                             :      6     6.7094     1.1099     1.1422     1.1182      16.97
sirius::Stress|us                                                 :      6     8.7550     1.4223     1.4948     1.4592       5.80
sirius::Stress|us|gemm                                            :    108     0.7432     0.0033     0.0104     0.0069     100.00
sirius::Stress|us|phase_fac                                       :     12     0.0508     0.0002     0.0083     0.0042     100.00
sirius::Stress|us|prepare                                         :    108     0.2520     0.0003     0.0056     0.0023     100.00
sirius::Stress|vloc                                               :      6     0.5377     0.0889     0.0903     0.0896       4.04
sirius::Unit_cell::find_nearest_neighbours                        :      6     0.0170     0.0027     0.0035     0.0028     100.00
sirius::Unit_cell::initialize                                     :      6     0.0307     0.0041     0.0102     0.0051       4.92
sirius_api::sirius_get_pw_coeffs                                  :     95     2.7583     0.0277     0.0363     0.0290      88.71
sirius_api::sirius_set_pw_coeffs                                  :    202     2.6073     0.0034     0.0264     0.0129      27.17
 
     init_run     :     17.16s CPU      3.58s WALL (       6 calls)
     forces       :     61.39s CPU      5.78s WALL (       6 calls)
     stress       :    206.22s CPU     18.25s WALL (       6 calls)

     Called by init_run:

     Called by electrons:
     v_of_rho     :     47.77s CPU      4.03s WALL (      89 calls)
     v_h          :     38.54s CPU      3.25s WALL (      89 calls)
     v_xc         :      8.40s CPU      0.71s WALL (     101 calls)
     mix_rho      :    106.69s CPU      9.05s WALL (      83 calls)
     sym_rho      :     39.83s CPU      3.37s WALL (      83 calls)

     Called by c_bands:

     Called by sum_band:

     Called by *egterg:

     Called by h_psi:

     General routines
     fft          :    153.00s CPU     12.95s WALL (     556 calls)
     ffts         :      0.63s CPU      0.06s WALL (       5 calls)
     interpolate  :      2.42s CPU      0.21s WALL (       5 calls)
 
     Parallel routines
     fft_scatt_xy :     42.23s CPU      3.50s WALL (     561 calls)
     fft_scatt_yz :     61.54s CPU      5.16s WALL (     561 calls)
 
     PWSCF        : 43m15.54s CPU     4m 0.20s WALL

 
   This run was terminated on:  15:49:22  14Nov2017            

=------------------------------------------------------------------------------=
   JOB DONE.
=------------------------------------------------------------------------------=
