
     Program PWSCF v.6.6 starts on  6Nov2021 at 17: 1:26 

     This program is part of the open-source Quantum ESPRESSO suite
     for quantum simulation of materials; please cite
         "P. Giannozzi et al., J. Phys.:Condens. Matter 21 395502 (2009);
         "P. Giannozzi et al., J. Phys.:Condens. Matter 29 465901 (2017);
         "P. Giannozzi et al., J. Chem. Phys. 152 154105 (2020);
          URL http://www.quantum-espresso.org", 
     in publications or presentations arising from this work. More details at
     http://www.quantum-espresso.org/quote

     Parallel version (MPI & OpenMP), running on      48 processor cores
     Number of MPI processes:                 4
     Threads/MPI process:                    12

     MPI processes distributed on     4 nodes
     K-points division:     npool     =       4
     Fft bands division:     nmany     =       1
     Reading input from pw.in
     Message from routine read_cards :
     DEPRECATED: no units specified in CELL_PARAMETERS card

     Current dimensions of program PWSCF are:
     Max number of different atomic species (ntypx) = 10
     Max number of k-points (npk) =  40000
     Max angular momentum in pseudopotentials (lmaxx) =  3
     Message from routine cell_base_init:
     DEPRECATED: use true lattice parameter, not A to a.u. conversion factor

     Subspace diagonalization in iterative solution of the eigenvalue problem:
     a serial algorithm will be used

     Message from routine setup:
     using ibrav=0 with symmetry is DISCOURAGED, use correct ibrav instead
 
     G-vector sticks info
     --------------------
     sticks:   dense  smooth     PW     G-vecs:    dense   smooth      PW
     Sum       26821    6721   1789              3303989   413381   57747
 
     Using Slab Decomposition
 


     bravais-lattice index     =            0
     lattice parameter (alat)  =       1.0000  a.u.
     unit-cell volume          =    8646.7719 (a.u.)^3
     number of atoms/cell      =           64
     number of atomic types    =            2
     number of electrons       =       266.00
     number of Kohn-Sham states=          800
     kinetic-energy cutoff     =      50.0000  Ry
     charge density cutoff     =     800.0000  Ry
     convergence threshold     =      1.0E-11
     mixing beta               =       0.7000
     number of iterations used =            8  plain     mixing
     Exchange-correlation= SLA  PZ   NOGX NOGC
                           (   1   1   0   0   0   0   0)

     GPU acceleration is ACTIVE.


     GPU used by master process:

        Device Number: 0
        Device name: Tesla P100-PCIE-16GB
        Compute capability : 60
        Ratio of single to double precision performance  : 2
        Memory Clock Rate (KHz): 715000
        Memory Bus Width (bits): 4096
        Peak Memory Bandwidth (GB/s): 732.16

     celldm(1)=   1.000000  celldm(2)=   0.000000  celldm(3)=   0.000000
     celldm(4)=   0.000000  celldm(5)=   0.000000  celldm(6)=   0.000000

     crystal axes: (cart. coord. in units of alat)
               a(1) = (  20.525071   0.000000   0.000000 )  
               a(2) = (   0.000000  20.525071   0.000000 )  
               a(3) = (   0.000000   0.000000  20.525071 )  

     reciprocal axes: (cart. coord. in units 2 pi/alat)
               b(1) = (  0.048721  0.000000  0.000000 )  
               b(2) = (  0.000000  0.048721  0.000000 )  
               b(3) = (  0.000000  0.000000  0.048721 )  


     PseudoPot. # 1 for Ge read from file:
     ./ge_lda_v1.4.uspp.F.UPF
     MD5 check sum: bf9d52b59cc8a669818bb2b52e0c2ba0
     Pseudo is Ultrasoft + core correction, Zval = 14.0
     Generated by new atomic code, or converted to UPF format
     Using radial grid of  873 points,  6 beta functions with: 
                l(1) =   0
                l(2) =   0
                l(3) =   1
                l(4) =   1
                l(5) =   2
                l(6) =   2
     Q(r) pseudized with  8 coefficients,  rinner =    1.400   1.400   1.400
                                                       1.400   1.400

     PseudoPot. # 2 for Si read from file:
     ./si_lda_v1.uspp.F.UPF
     MD5 check sum: b5ade7b37ee992b02096e360e546dc2d
     Pseudo is Ultrasoft + core correction, Zval =  4.0
     Generated by new atomic code, or converted to UPF format
     Using radial grid of  899 points,  6 beta functions with: 
                l(1) =   0
                l(2) =   0
                l(3) =   1
                l(4) =   1
                l(5) =   2
                l(6) =   2
     Q(r) pseudized with  8 coefficients,  rinner =    0.900   0.900   0.900
                                                       0.900   0.900

     atomic species   valence    mass     pseudopotential
        Ge            14.00    72.61000     Ge( 1.00)
        Si             4.00    28.08550     Si( 1.00)

     24 Sym. Ops. (no inversion) found


                                    s                        frac. trans.

      isym =  1     identity                                     

 cryst.   s( 1) = (     1          0          0      )
                  (     0          1          0      )
                  (     0          0          1      )

 cart.    s( 1) = (  1.0000000  0.0000000  0.0000000 )
                  (  0.0000000  1.0000000  0.0000000 )
                  (  0.0000000  0.0000000  1.0000000 )


      isym =  2     180 deg rotation - cart. axis [0,0,1]        

 cryst.   s( 2) = (    -1          0          0      )
                  (     0         -1          0      )
                  (     0          0          1      )

 cart.    s( 2) = ( -1.0000000  0.0000000  0.0000000 )
                  (  0.0000000 -1.0000000  0.0000000 )
                  (  0.0000000  0.0000000  1.0000000 )


      isym =  3     180 deg rotation - cart. axis [0,1,0]        

 cryst.   s( 3) = (    -1          0          0      )
                  (     0          1          0      )
                  (     0          0         -1      )

 cart.    s( 3) = ( -1.0000000  0.0000000  0.0000000 )
                  (  0.0000000  1.0000000  0.0000000 )
                  (  0.0000000  0.0000000 -1.0000000 )


      isym =  4     180 deg rotation - cart. axis [1,0,0]        

 cryst.   s( 4) = (     1          0          0      )
                  (     0         -1          0      )
                  (     0          0         -1      )

 cart.    s( 4) = (  1.0000000  0.0000000  0.0000000 )
                  (  0.0000000 -1.0000000  0.0000000 )
                  (  0.0000000  0.0000000 -1.0000000 )


      isym =  5     120 deg rotation - cart. axis [-1,-1,-1]     

 cryst.   s( 5) = (     0          0          1      )
                  (     1          0          0      )
                  (     0          1          0      )

 cart.    s( 5) = (  0.0000000  1.0000000  0.0000000 )
                  (  0.0000000  0.0000000  1.0000000 )
                  (  1.0000000  0.0000000  0.0000000 )


      isym =  6     120 deg rotation - cart. axis [-1,1,1]       

 cryst.   s( 6) = (     0          0         -1      )
                  (    -1          0          0      )
                  (     0          1          0      )

 cart.    s( 6) = (  0.0000000 -1.0000000  0.0000000 )
                  (  0.0000000  0.0000000  1.0000000 )
                  ( -1.0000000  0.0000000  0.0000000 )


      isym =  7     120 deg rotation - cart. axis [1,1,-1]       

 cryst.   s( 7) = (     0          0         -1      )
                  (     1          0          0      )
                  (     0         -1          0      )

 cart.    s( 7) = (  0.0000000  1.0000000  0.0000000 )
                  (  0.0000000  0.0000000 -1.0000000 )
                  ( -1.0000000  0.0000000  0.0000000 )


      isym =  8     120 deg rotation - cart. axis [1,-1,1]       

 cryst.   s( 8) = (     0          0          1      )
                  (    -1          0          0      )
                  (     0         -1          0      )

 cart.    s( 8) = (  0.0000000 -1.0000000  0.0000000 )
                  (  0.0000000  0.0000000 -1.0000000 )
                  (  1.0000000  0.0000000  0.0000000 )


      isym =  9     120 deg rotation - cart. axis [1,1,1]        

 cryst.   s( 9) = (     0          1          0      )
                  (     0          0          1      )
                  (     1          0          0      )

 cart.    s( 9) = (  0.0000000  0.0000000  1.0000000 )
                  (  1.0000000  0.0000000  0.0000000 )
                  (  0.0000000  1.0000000  0.0000000 )


      isym = 10     120 deg rotation - cart. axis [-1,1,-1]      

 cryst.   s(10) = (     0         -1          0      )
                  (     0          0         -1      )
                  (     1          0          0      )

 cart.    s(10) = (  0.0000000  0.0000000  1.0000000 )
                  ( -1.0000000  0.0000000  0.0000000 )
                  (  0.0000000 -1.0000000  0.0000000 )


      isym = 11     120 deg rotation - cart. axis [1,-1,-1]      

 cryst.   s(11) = (     0         -1          0      )
                  (     0          0          1      )
                  (    -1          0          0      )

 cart.    s(11) = (  0.0000000  0.0000000 -1.0000000 )
                  ( -1.0000000  0.0000000  0.0000000 )
                  (  0.0000000  1.0000000  0.0000000 )


      isym = 12     120 deg rotation - cart. axis [-1,-1,1]      

 cryst.   s(12) = (     0          1          0      )
                  (     0          0         -1      )
                  (    -1          0          0      )

 cart.    s(12) = (  0.0000000  0.0000000 -1.0000000 )
                  (  1.0000000  0.0000000  0.0000000 )
                  (  0.0000000 -1.0000000  0.0000000 )


      isym = 13     inv. 180 deg rotation - cart. axis [1,1,0]   

 cryst.   s(13) = (     0         -1          0      )
                  (    -1          0          0      )
                  (     0          0          1      )

 cart.    s(13) = (  0.0000000 -1.0000000  0.0000000 )
                  ( -1.0000000  0.0000000  0.0000000 )
                  (  0.0000000  0.0000000  1.0000000 )


      isym = 14     inv. 180 deg rotation - cart. axis [1,-1,0]  

 cryst.   s(14) = (     0          1          0      )
                  (     1          0          0      )
                  (     0          0          1      )

 cart.    s(14) = (  0.0000000  1.0000000  0.0000000 )
                  (  1.0000000  0.0000000  0.0000000 )
                  (  0.0000000  0.0000000  1.0000000 )


      isym = 15     inv.  90 deg rotation - cart. axis [0,0,-1]  

 cryst.   s(15) = (     0          1          0      )
                  (    -1          0          0      )
                  (     0          0         -1      )

 cart.    s(15) = (  0.0000000 -1.0000000  0.0000000 )
                  (  1.0000000  0.0000000  0.0000000 )
                  (  0.0000000  0.0000000 -1.0000000 )


      isym = 16     inv.  90 deg rotation - cart. axis [0,0,1]   

 cryst.   s(16) = (     0         -1          0      )
                  (     1          0          0      )
                  (     0          0         -1      )

 cart.    s(16) = (  0.0000000  1.0000000  0.0000000 )
                  ( -1.0000000  0.0000000  0.0000000 )
                  (  0.0000000  0.0000000 -1.0000000 )


      isym = 17     inv. 180 deg rotation - cart. axis [1,0,1]   

 cryst.   s(17) = (     0          0         -1      )
                  (     0          1          0      )
                  (    -1          0          0      )

 cart.    s(17) = (  0.0000000  0.0000000 -1.0000000 )
                  (  0.0000000  1.0000000  0.0000000 )
                  ( -1.0000000  0.0000000  0.0000000 )


      isym = 18     inv. 180 deg rotation - cart. axis [-1,0,1]  

 cryst.   s(18) = (     0          0          1      )
                  (     0          1          0      )
                  (     1          0          0      )

 cart.    s(18) = (  0.0000000  0.0000000  1.0000000 )
                  (  0.0000000  1.0000000  0.0000000 )
                  (  1.0000000  0.0000000  0.0000000 )


      isym = 19     inv.  90 deg rotation - cart. axis [0,1,0]   

 cryst.   s(19) = (     0          0          1      )
                  (     0         -1          0      )
                  (    -1          0          0      )

 cart.    s(19) = (  0.0000000  0.0000000 -1.0000000 )
                  (  0.0000000 -1.0000000  0.0000000 )
                  (  1.0000000  0.0000000  0.0000000 )


      isym = 20     inv.  90 deg rotation - cart. axis [0,-1,0]  

 cryst.   s(20) = (     0          0         -1      )
                  (     0         -1          0      )
                  (     1          0          0      )

 cart.    s(20) = (  0.0000000  0.0000000  1.0000000 )
                  (  0.0000000 -1.0000000  0.0000000 )
                  ( -1.0000000  0.0000000  0.0000000 )


      isym = 21     inv. 180 deg rotation - cart. axis [0,1,1]   

 cryst.   s(21) = (     1          0          0      )
                  (     0          0         -1      )
                  (     0         -1          0      )

 cart.    s(21) = (  1.0000000  0.0000000  0.0000000 )
                  (  0.0000000  0.0000000 -1.0000000 )
                  (  0.0000000 -1.0000000  0.0000000 )


      isym = 22     inv. 180 deg rotation - cart. axis [0,1,-1]  

 cryst.   s(22) = (     1          0          0      )
                  (     0          0          1      )
                  (     0          1          0      )

 cart.    s(22) = (  1.0000000  0.0000000  0.0000000 )
                  (  0.0000000  0.0000000  1.0000000 )
                  (  0.0000000  1.0000000  0.0000000 )


      isym = 23     inv.  90 deg rotation - cart. axis [-1,0,0]  

 cryst.   s(23) = (    -1          0          0      )
                  (     0          0          1      )
                  (     0         -1          0      )

 cart.    s(23) = ( -1.0000000  0.0000000  0.0000000 )
                  (  0.0000000  0.0000000 -1.0000000 )
                  (  0.0000000  1.0000000  0.0000000 )


      isym = 24     inv.  90 deg rotation - cart. axis [1,0,0]   

 cryst.   s(24) = (    -1          0          0      )
                  (     0          0         -1      )
                  (     0          1          0      )

 cart.    s(24) = ( -1.0000000  0.0000000  0.0000000 )
                  (  0.0000000  0.0000000  1.0000000 )
                  (  0.0000000 -1.0000000  0.0000000 )


   Cartesian axes

     site n.     atom                  positions (alat units)
         1           Ge  tau(   1) = (   0.0000000   0.0000000   0.0000000  )
         2           Si  tau(   2) = (   0.0000000   0.0000000  10.2625355  )
         3           Si  tau(   3) = (   0.0000000  10.2625355   0.0000000  )
         4           Si  tau(   4) = (   0.0000000  10.2625355  10.2625355  )
         5           Si  tau(   5) = (  10.2625355   0.0000000   0.0000000  )
         6           Si  tau(   6) = (  10.2625355   0.0000000  10.2625355  )
         7           Si  tau(   7) = (  10.2625355  10.2625355   0.0000000  )
         8           Si  tau(   8) = (  10.2625355  10.2625355  10.2625355  )
         9           Si  tau(   9) = (   0.0000000   5.1312678   5.1312678  )
        10           Si  tau(  10) = (   0.0000000   5.1312678  15.3938033  )
        11           Si  tau(  11) = (   0.0000000  15.3938033   5.1312678  )
        12           Si  tau(  12) = (   0.0000000  15.3938033  15.3938033  )
        13           Si  tau(  13) = (  10.2625355   5.1312678   5.1312678  )
        14           Si  tau(  14) = (  10.2625355   5.1312678  15.3938033  )
        15           Si  tau(  15) = (  10.2625355  15.3938033   5.1312678  )
        16           Si  tau(  16) = (  10.2625355  15.3938033  15.3938033  )
        17           Si  tau(  17) = (   5.1312678   0.0000000   5.1312678  )
        18           Si  tau(  18) = (   5.1312678   0.0000000  15.3938033  )
        19           Si  tau(  19) = (   5.1312678  10.2625355   5.1312678  )
        20           Si  tau(  20) = (   5.1312678  10.2625355  15.3938033  )
        21           Si  tau(  21) = (  15.3938033   0.0000000   5.1312678  )
        22           Si  tau(  22) = (  15.3938033   0.0000000  15.3938033  )
        23           Si  tau(  23) = (  15.3938033  10.2625355   5.1312678  )
        24           Si  tau(  24) = (  15.3938033  10.2625355  15.3938033  )
        25           Si  tau(  25) = (   5.1312678   5.1312678   0.0000000  )
        26           Si  tau(  26) = (   5.1312678   5.1312678  10.2625355  )
        27           Si  tau(  27) = (   5.1312678  15.3938033   0.0000000  )
        28           Si  tau(  28) = (   5.1312678  15.3938033  10.2625355  )
        29           Si  tau(  29) = (  15.3938033   5.1312678   0.0000000  )
        30           Si  tau(  30) = (  15.3938033   5.1312678  10.2625355  )
        31           Si  tau(  31) = (  15.3938033  15.3938033   0.0000000  )
        32           Si  tau(  32) = (  15.3938033  15.3938033  10.2625355  )
        33           Si  tau(  33) = (   7.6969016   7.6969016   2.5656339  )
        34           Si  tau(  34) = (   7.6969016   7.6969016  12.8281694  )
        35           Si  tau(  35) = (   7.6969016  17.9594371   2.5656339  )
        36           Si  tau(  36) = (   7.6969016  17.9594371  12.8281694  )
        37           Si  tau(  37) = (  17.9594371   7.6969016   2.5656339  )
        38           Si  tau(  38) = (  17.9594371   7.6969016  12.8281694  )
        39           Si  tau(  39) = (  17.9594371  17.9594371   2.5656339  )
        40           Si  tau(  40) = (  17.9594371  17.9594371  12.8281694  )
        41           Si  tau(  41) = (   7.6969016   2.5656339   7.6969016  )
        42           Si  tau(  42) = (   7.6969016   2.5656339  17.9594371  )
        43           Si  tau(  43) = (   7.6969016  12.8281694   7.6969016  )
        44           Si  tau(  44) = (   7.6969016  12.8281694  17.9594371  )
        45           Si  tau(  45) = (  17.9594371   2.5656339   7.6969016  )
        46           Si  tau(  46) = (  17.9594371   2.5656339  17.9594371  )
        47           Si  tau(  47) = (  17.9594371  12.8281694   7.6969016  )
        48           Si  tau(  48) = (  17.9594371  12.8281694  17.9594371  )
        49           Si  tau(  49) = (   2.5656339   7.6969016   7.6969016  )
        50           Si  tau(  50) = (   2.5656339   7.6969016  17.9594371  )
        51           Si  tau(  51) = (   2.5656339  17.9594371   7.6969016  )
        52           Si  tau(  52) = (   2.5656339  17.9594371  17.9594371  )
        53           Si  tau(  53) = (  12.8281694   7.6969016   7.6969016  )
        54           Si  tau(  54) = (  12.8281694   7.6969016  17.9594371  )
        55           Si  tau(  55) = (  12.8281694  17.9594371   7.6969016  )
        56           Si  tau(  56) = (  12.8281694  17.9594371  17.9594371  )
        57           Si  tau(  57) = (   2.5656339   2.5656339   2.5656339  )
        58           Si  tau(  58) = (   2.5656339   2.5656339  12.8281694  )
        59           Si  tau(  59) = (   2.5656339  12.8281694   2.5656339  )
        60           Si  tau(  60) = (   2.5656339  12.8281694  12.8281694  )
        61           Si  tau(  61) = (  12.8281694   2.5656339   2.5656339  )
        62           Si  tau(  62) = (  12.8281694   2.5656339  12.8281694  )
        63           Si  tau(  63) = (  12.8281694  12.8281694   2.5656339  )
        64           Si  tau(  64) = (  12.8281694  12.8281694  12.8281694  )

   Crystallographic axes

     site n.     atom                  positions (cryst. coord.)
         1           Ge  tau(   1) = (  0.0000000  0.0000000  0.0000000  )
         2           Si  tau(   2) = (  0.0000000  0.0000000  0.5000000  )
         3           Si  tau(   3) = (  0.0000000  0.5000000  0.0000000  )
         4           Si  tau(   4) = (  0.0000000  0.5000000  0.5000000  )
         5           Si  tau(   5) = (  0.5000000  0.0000000  0.0000000  )
         6           Si  tau(   6) = (  0.5000000  0.0000000  0.5000000  )
         7           Si  tau(   7) = (  0.5000000  0.5000000  0.0000000  )
         8           Si  tau(   8) = (  0.5000000  0.5000000  0.5000000  )
         9           Si  tau(   9) = (  0.0000000  0.2500000  0.2500000  )
        10           Si  tau(  10) = (  0.0000000  0.2500000  0.7500000  )
        11           Si  tau(  11) = (  0.0000000  0.7500000  0.2500000  )
        12           Si  tau(  12) = (  0.0000000  0.7500000  0.7500000  )
        13           Si  tau(  13) = (  0.5000000  0.2500000  0.2500000  )
        14           Si  tau(  14) = (  0.5000000  0.2500000  0.7500000  )
        15           Si  tau(  15) = (  0.5000000  0.7500000  0.2500000  )
        16           Si  tau(  16) = (  0.5000000  0.7500000  0.7500000  )
        17           Si  tau(  17) = (  0.2500000  0.0000000  0.2500000  )
        18           Si  tau(  18) = (  0.2500000  0.0000000  0.7500000  )
        19           Si  tau(  19) = (  0.2500000  0.5000000  0.2500000  )
        20           Si  tau(  20) = (  0.2500000  0.5000000  0.7500000  )
        21           Si  tau(  21) = (  0.7500000  0.0000000  0.2500000  )
        22           Si  tau(  22) = (  0.7500000  0.0000000  0.7500000  )
        23           Si  tau(  23) = (  0.7500000  0.5000000  0.2500000  )
        24           Si  tau(  24) = (  0.7500000  0.5000000  0.7500000  )
        25           Si  tau(  25) = (  0.2500000  0.2500000  0.0000000  )
        26           Si  tau(  26) = (  0.2500000  0.2500000  0.5000000  )
        27           Si  tau(  27) = (  0.2500000  0.7500000  0.0000000  )
        28           Si  tau(  28) = (  0.2500000  0.7500000  0.5000000  )
        29           Si  tau(  29) = (  0.7500000  0.2500000  0.0000000  )
        30           Si  tau(  30) = (  0.7500000  0.2500000  0.5000000  )
        31           Si  tau(  31) = (  0.7500000  0.7500000  0.0000000  )
        32           Si  tau(  32) = (  0.7500000  0.7500000  0.5000000  )
        33           Si  tau(  33) = (  0.3750000  0.3750000  0.1250000  )
        34           Si  tau(  34) = (  0.3750000  0.3750000  0.6250000  )
        35           Si  tau(  35) = (  0.3750000  0.8750000  0.1250000  )
        36           Si  tau(  36) = (  0.3750000  0.8750000  0.6250000  )
        37           Si  tau(  37) = (  0.8750000  0.3750000  0.1250000  )
        38           Si  tau(  38) = (  0.8750000  0.3750000  0.6250000  )
        39           Si  tau(  39) = (  0.8750000  0.8750000  0.1250000  )
        40           Si  tau(  40) = (  0.8750000  0.8750000  0.6250000  )
        41           Si  tau(  41) = (  0.3750000  0.1250000  0.3750000  )
        42           Si  tau(  42) = (  0.3750000  0.1250000  0.8750000  )
        43           Si  tau(  43) = (  0.3750000  0.6250000  0.3750000  )
        44           Si  tau(  44) = (  0.3750000  0.6250000  0.8750000  )
        45           Si  tau(  45) = (  0.8750000  0.1250000  0.3750000  )
        46           Si  tau(  46) = (  0.8750000  0.1250000  0.8750000  )
        47           Si  tau(  47) = (  0.8750000  0.6250000  0.3750000  )
        48           Si  tau(  48) = (  0.8750000  0.6250000  0.8750000  )
        49           Si  tau(  49) = (  0.1250000  0.3750000  0.3750000  )
        50           Si  tau(  50) = (  0.1250000  0.3750000  0.8750000  )
        51           Si  tau(  51) = (  0.1250000  0.8750000  0.3750000  )
        52           Si  tau(  52) = (  0.1250000  0.8750000  0.8750000  )
        53           Si  tau(  53) = (  0.6250000  0.3750000  0.3750000  )
        54           Si  tau(  54) = (  0.6250000  0.3750000  0.8750000  )
        55           Si  tau(  55) = (  0.6250000  0.8750000  0.3750000  )
        56           Si  tau(  56) = (  0.6250000  0.8750000  0.8750000  )
        57           Si  tau(  57) = (  0.1250000  0.1250000  0.1250000  )
        58           Si  tau(  58) = (  0.1250000  0.1250000  0.6250000  )
        59           Si  tau(  59) = (  0.1250000  0.6250000  0.1250000  )
        60           Si  tau(  60) = (  0.1250000  0.6250000  0.6250000  )
        61           Si  tau(  61) = (  0.6250000  0.1250000  0.1250000  )
        62           Si  tau(  62) = (  0.6250000  0.1250000  0.6250000  )
        63           Si  tau(  63) = (  0.6250000  0.6250000  0.1250000  )
        64           Si  tau(  64) = (  0.6250000  0.6250000  0.6250000  )

     number of k points=     4  Gaussian smearing, width (Ry)=  0.0100
                       cart. coord. in units 2pi/alat
        k(    1) = (   0.0000000   0.0000000   0.0000000), wk =   0.2500000
        k(    2) = (   0.0000000   0.0000000  -0.0243605), wk =   0.7500000
        k(    3) = (   0.0000000  -0.0243605  -0.0243605), wk =   0.7500000
        k(    4) = (  -0.0243605  -0.0243605  -0.0243605), wk =   0.2500000

                       cryst. coord.
        k(    1) = (   0.0000000   0.0000000   0.0000000), wk =   0.2500000
        k(    2) = (   0.0000000   0.0000000  -0.5000000), wk =   0.7500000
        k(    3) = (   0.0000000  -0.5000000  -0.5000000), wk =   0.7500000
        k(    4) = (  -0.5000000  -0.5000000  -0.5000000), wk =   0.2500000

     Dense  grid:  3303989 G-vectors     FFT dimensions: ( 192, 192, 192)

     Smooth grid:   413381 G-vectors     FFT dimensions: (  96,  96,  96)

     Dynamical RAM for                 wfc:     630.19 MB

     Dynamical RAM for     wfc (w. buffer):     630.19 MB

     Dynamical RAM for           str. fact:     100.83 MB

     Dynamical RAM for           local pot:       0.00 MB

     Dynamical RAM for          nlocal pot:     907.47 MB

     Dynamical RAM for                qrad:       4.54 MB

     Dynamical RAM for          rho,v,vnew:     313.24 MB

     Dynamical RAM for               rhoin:     104.41 MB

     Dynamical RAM for            rho*nmix:     806.64 MB

     Dynamical RAM for           G-vectors:     192.21 MB

     Dynamical RAM for          h,s,v(r/c):     117.19 MB

     Dynamical RAM for          <psi|beta>:      14.06 MB

     Dynamical RAM for                 psi:    1260.38 MB

     Dynamical RAM for                hpsi:    1260.38 MB

     Dynamical RAM for                spsi:    1260.38 MB

     Dynamical RAM for      wfcinit/wfcrot:    1275.03 MB

     Dynamical RAM for           addusdens:    3176.14 MB

     Dynamical RAM for          addusforce:    4726.64 MB

     Dynamical RAM for         addusstress:    2552.25 MB

     Estimated static dynamical RAM per process >       3.40 GB

     Estimated max dynamical RAM per process >       8.02 GB

     Estimated total dynamical RAM >      32.06 GB
 Really copied psic H->D
 Really copied mill H->D
 Really copied g H->D
 Really copied gg H->D
 Really copied wg H->D
 Really copied eigts1 H->D
 Really copied eigts2 H->D
 Really copied eigts3 H->D

     Initial potential from superposition of free atoms

     starting charge  265.96130, renormalised to  266.00000
 Really copied qrad H->D
     Starting wfcs are  261 randomized atomic wfcs +  539 random wfcs
 Really copied tab H->D
 Really copied vrs H->D

     total cpu time spent up to now is        9.4 secs

     Self-consistent Calculation
[tb_dev] Currently allocated     2.29E+02 Mbytes, locked:    0 /   9
[tb_pin] Currently allocated     1.96E+01 Mbytes, locked:    0 /   5

     iteration #  1     ecut=    50.00 Ry     beta= 0.70
 Really copied evc D->H
     Davidson diagonalization with overlap
 Really copied evc D->H
     ethr =  1.00E-02,  avg # of iterations =  8.5
 Really copied et D->H
 Really copied wg H->D

     Threshold (ethr) on eigenvalues was too large:
     Diagonalizing with lowered threshold

     Davidson diagonalization with overlap
 Really copied et H->D
 Really copied evc D->H
     ethr =  7.07E-04,  avg # of iterations =  1.3
 Really copied et D->H
 Really copied wg H->D

     total cpu time spent up to now is       23.8 secs

     total energy              =    -819.66065991 Ry
     estimated scf accuracy    <       1.87622122 Ry
[tb_dev] Currently allocated     4.71E+03 Mbytes, locked:    0 /  13
[tb_pin] Currently allocated     1.87E+02 Mbytes, locked:    0 /   9

     iteration #  2     ecut=    50.00 Ry     beta= 0.70
     Davidson diagonalization with overlap
 Really copied et H->D
 Really copied vrs H->D
 Really copied evc D->H
     ethr =  7.05E-04,  avg # of iterations =  1.0
 Really copied et D->H
 Really copied wg H->D

     total cpu time spent up to now is       27.8 secs

     total energy              =    -819.76562587 Ry
     estimated scf accuracy    <       0.05939791 Ry
[tb_dev] Currently allocated     4.71E+03 Mbytes, locked:    0 /  13
[tb_pin] Currently allocated     1.87E+02 Mbytes, locked:    0 /   9

     iteration #  3     ecut=    50.00 Ry     beta= 0.70
     Davidson diagonalization with overlap
 Really copied et H->D
 Really copied vrs H->D
 Really copied evc D->H
     ethr =  2.23E-05,  avg # of iterations = 12.5
 Really copied et D->H
 Really copied wg H->D

     total cpu time spent up to now is       35.1 secs

     total energy              =    -819.74783226 Ry
     estimated scf accuracy    <       0.10128353 Ry
[tb_dev] Currently allocated     4.71E+03 Mbytes, locked:    0 /  13
[tb_pin] Currently allocated     1.87E+02 Mbytes, locked:    0 /   9

     iteration #  4     ecut=    50.00 Ry     beta= 0.70
     Davidson diagonalization with overlap
 Really copied et H->D
 Really copied vrs H->D
 Really copied evc D->H
     ethr =  2.23E-05,  avg # of iterations =  6.0
 Really copied et D->H
 Really copied wg H->D

     total cpu time spent up to now is       40.5 secs

     total energy              =    -819.76701980 Ry
     estimated scf accuracy    <       0.03120249 Ry
[tb_dev] Currently allocated     4.71E+03 Mbytes, locked:    0 /  13
[tb_pin] Currently allocated     1.87E+02 Mbytes, locked:    0 /   9

     iteration #  5     ecut=    50.00 Ry     beta= 0.70
     Davidson diagonalization with overlap
 Really copied et H->D
 Really copied vrs H->D
 Really copied evc D->H
     ethr =  1.17E-05,  avg # of iterations =  4.8
 Really copied et D->H
 Really copied wg H->D

     total cpu time spent up to now is       45.5 secs

     total energy              =    -819.77075557 Ry
     estimated scf accuracy    <       0.00987729 Ry
[tb_dev] Currently allocated     4.71E+03 Mbytes, locked:    0 /  13
[tb_pin] Currently allocated     1.87E+02 Mbytes, locked:    0 /   9

     iteration #  6     ecut=    50.00 Ry     beta= 0.70
     Davidson diagonalization with overlap
 Really copied et H->D
 Really copied vrs H->D
     c_bands:  2 eigenvalues not converged
 Really copied evc D->H
     ethr =  3.71E-06,  avg # of iterations =  7.0
 Really copied et D->H
 Really copied wg H->D

     total cpu time spent up to now is       51.3 secs

     total energy              =    -819.77238707 Ry
     estimated scf accuracy    <       0.00039969 Ry
[tb_dev] Currently allocated     4.71E+03 Mbytes, locked:    0 /  13
[tb_pin] Currently allocated     1.87E+02 Mbytes, locked:    0 /   9

     iteration #  7     ecut=    50.00 Ry     beta= 0.70
     Davidson diagonalization with overlap
 Really copied et H->D
 Really copied vrs H->D
     c_bands:  1 eigenvalues not converged
 Really copied evc D->H
     ethr =  1.50E-07,  avg # of iterations = 14.0
 Really copied et D->H
 Really copied wg H->D

     total cpu time spent up to now is       57.4 secs

     total energy              =    -819.77246858 Ry
     estimated scf accuracy    <       0.00000545 Ry
[tb_dev] Currently allocated     4.71E+03 Mbytes, locked:    0 /  13
[tb_pin] Currently allocated     1.87E+02 Mbytes, locked:    0 /   9

     iteration #  8     ecut=    50.00 Ry     beta= 0.70
     Davidson diagonalization with overlap
 Really copied et H->D
 Really copied vrs H->D
 Really copied evc D->H
     ethr =  2.05E-09,  avg # of iterations =  6.0
 Really copied et D->H
 Really copied wg H->D

     total cpu time spent up to now is       63.1 secs

     total energy              =    -819.77247474 Ry
     estimated scf accuracy    <       0.00000099 Ry
[tb_dev] Currently allocated     4.71E+03 Mbytes, locked:    0 /  13
[tb_pin] Currently allocated     1.87E+02 Mbytes, locked:    0 /   9

     iteration #  9     ecut=    50.00 Ry     beta= 0.70
     Davidson diagonalization with overlap
 Really copied et H->D
 Really copied vrs H->D
 Really copied evc D->H
     ethr =  3.71E-10,  avg # of iterations =  1.3
 Really copied et D->H
 Really copied wg H->D

     total cpu time spent up to now is       67.7 secs

     total energy              =    -819.77247495 Ry
     estimated scf accuracy    <       0.00000015 Ry
[tb_dev] Currently allocated     4.71E+03 Mbytes, locked:    0 /  13
[tb_pin] Currently allocated     1.87E+02 Mbytes, locked:    0 /   9

     iteration # 10     ecut=    50.00 Ry     beta= 0.70
     Davidson diagonalization with overlap
 Really copied et H->D
 Really copied vrs H->D
 Really copied evc D->H
     ethr =  5.82E-11,  avg # of iterations =  1.5
 Really copied et D->H
 Really copied wg H->D

     total cpu time spent up to now is       72.3 secs

     total energy              =    -819.77247498 Ry
     estimated scf accuracy    <          8.4E-09 Ry
[tb_dev] Currently allocated     4.71E+03 Mbytes, locked:    0 /  13
[tb_pin] Currently allocated     1.87E+02 Mbytes, locked:    0 /   9

     iteration # 11     ecut=    50.00 Ry     beta= 0.70
     Davidson diagonalization with overlap
 Really copied et H->D
 Really copied vrs H->D
 Really copied evc D->H
     ethr =  3.17E-12,  avg # of iterations =  2.3
 Really copied et D->H
 Really copied wg H->D

     total cpu time spent up to now is       77.0 secs

     total energy              =    -819.77247499 Ry
     estimated scf accuracy    <          7.1E-10 Ry
[tb_dev] Currently allocated     4.71E+03 Mbytes, locked:    0 /  13
[tb_pin] Currently allocated     1.87E+02 Mbytes, locked:    0 /   9

     iteration # 12     ecut=    50.00 Ry     beta= 0.70
     Davidson diagonalization with overlap
 Really copied et H->D
 Really copied vrs H->D
 Really copied evc D->H
     ethr =  2.65E-13,  avg # of iterations =  3.0
 Really copied et D->H
 Really copied wg H->D

     total cpu time spent up to now is       81.8 secs

     total energy              =    -819.77247499 Ry
     estimated scf accuracy    <          2.2E-11 Ry
[tb_dev] Currently allocated     4.71E+03 Mbytes, locked:    0 /  13
[tb_pin] Currently allocated     1.87E+02 Mbytes, locked:    0 /   9

     iteration # 13     ecut=    50.00 Ry     beta= 0.70
     Davidson diagonalization with overlap
 Really copied et H->D
 Really copied vrs H->D
 Really copied evc D->H
     ethr =  1.00E-13,  avg # of iterations =  1.3
 Really copied et D->H
 Really copied wg H->D

     total cpu time spent up to now is       86.0 secs

     End of self-consistent calculation

          k = 0.0000 0.0000 0.0000 ( 51627 PWs)   bands (ev):

   -18.1990 -18.1990 -18.1990 -18.1687 -18.1687  -5.9340  -4.9973  -4.8227
    -4.8227  -4.8227  -4.8208  -4.8208  -4.1143  -3.8622  -3.8622  -3.8622
    -3.8578  -3.8578  -3.8578  -3.8577  -3.8577  -3.8577  -3.8577  -3.8577
    -3.6097  -3.5663  -3.5663  -3.5663  -1.9429  -1.7635  -1.7635  -1.7635
    -1.7604  -1.7604  -1.6821  -1.5971  -1.5971  -1.5971  -1.5943  -1.5943
    -1.5943  -1.5936  -1.5936  -1.5936  -1.5934  -1.5934  -0.9550  -0.9375
    -0.9375  -0.9375   0.4474   0.5646   0.5646   0.5646   0.5681   0.5681
     0.5681   0.5691   0.5691   0.5715   0.5715   0.5715   2.1722   2.1722
     2.1722   2.1819   2.1819   2.1819   2.1828   2.1828   2.1828   2.1829
     2.1858   2.1858   2.2673   2.2731   2.2731   2.2731   2.2813   2.2813
     2.2813   2.2832   2.2832   2.2842   2.2842   2.2842   2.4696   2.5276
     2.5276   2.5312   2.5312   2.5312   3.2051   3.2051   3.2051   3.2053
     3.2053   3.2053   4.1653   4.1653   4.1653   4.1669   4.1669   4.1669
     4.1690   4.1690   4.1690   4.1777   4.1777   4.1777   4.7320   4.7320
     4.7320   4.7344   4.7344   4.7344   4.7345   4.7379   4.7379   4.7412
     4.7412   4.7412   4.8628   4.8628   4.8628   4.8660   4.8660   4.8717
     4.8717   4.8717   6.0692   6.0692   6.0692   6.6460   6.6805   6.6805
     6.6805   6.6817   6.6817   7.0851   7.1105   7.1105   7.1182   7.1182
     7.1182   7.4326   7.4912   7.4912   7.4912   8.3767   8.4254   8.4254
     8.4254   8.4279   8.4279   8.4279   8.4501   8.4501   8.4501   8.4508
     8.4508   8.5968   8.5968   8.5968   9.0761   9.1058   9.1058   9.1058
     9.1237   9.1237   9.2227   9.3593   9.3593   9.3593   9.3776   9.3776
     9.3776   9.3934   9.3934  10.2458  10.2458  10.2458  10.2488  10.2527
    10.2527  10.2527  10.2734  10.2734  10.2864  10.2864  10.2864  10.7984
    10.7984  10.7984  10.8038  10.8038  10.8038  10.8045  10.8188  10.8188
    10.8330  10.8330  10.8330  10.9304  10.9793  10.9793  10.9793  10.9844
    10.9844  10.9844  11.0088  11.0088  11.0088  11.0114  11.0114  11.0872
    11.1032  11.1032  11.1032  11.1054  11.1054  11.1105  11.1105  11.1105
    11.1742  11.1742  11.1742  11.7622  11.7622  11.7622  11.7648  11.7648
    11.7648  11.7769  11.7769  11.7769  11.8197  11.8197  11.8197  12.0186
    12.0760  12.0760  12.0760  12.0785  12.0785  12.0785  12.0984  12.0984
    12.1000  12.1000  12.1000  12.4758  12.4758  12.4758  12.4794  12.4794
    12.4794  12.4802  12.5359  12.5359  12.5359  12.5722  12.5722  13.5750
    13.5821  13.5821  13.5821  13.7217  13.8340  13.8340  13.9169  13.9878
    13.9878  13.9922  13.9922  13.9922  15.0050  15.0050  15.0050  15.0083
    15.1037  15.1037  15.5668  15.5679  15.5679  15.5679  15.5852  15.5852
    15.5852  15.5957  15.5957  15.6133  15.6133  15.6133  16.0291  16.0291
    16.0291  16.0622  16.0622  16.0622  16.5373  16.5373  16.5373  16.5422
    16.5422  16.5440  16.5592  16.5592  16.5592  16.5672  16.5672  16.5672
    16.5862  16.5862  16.5862  16.6212  16.6212  16.7090  16.7090  16.7090
    16.9900  16.9900  16.9900  17.0831  17.0831  17.0831  17.1736  17.1818
    17.1818  17.1818  17.2139  17.2347  17.2347  17.2347  17.2402  17.2402
    17.2497  17.2497  17.2497  17.3087  17.3087  17.3087  17.3405  17.3405
    17.3405  17.3684  17.3684  18.4869  18.5186  18.5186  18.5186  18.5196
    18.5196  18.5196  18.5315  18.5315  18.5442  18.5442  18.5442  18.5755
    18.5755  18.5755  18.5832  18.6671  18.6671  18.8082  18.8413  18.8413
    18.8413  18.8577  18.8777  18.8777  18.9000  18.9000  18.9000  18.9502
    18.9502  18.9502  18.9507  18.9507  18.9507  18.9539  18.9539  18.9539
    18.9737  18.9843  18.9843  18.9843  18.9918  18.9918  18.9918  19.0159
    19.0159  19.0159  19.0264  19.0264  19.0264  19.0518  19.0518  19.1358
    19.1464  19.1464  19.1464  19.1720  19.1720  19.1720  19.2067  19.2067
    19.2067  19.2732  19.2732  19.3141  19.3419  19.3419  19.3419  19.3443
    19.3443  19.3443  19.3836  19.3836  19.3836  19.4246  19.4246  19.6043
    19.6099  19.6099  19.6099  19.7350  19.7350  21.1299  22.3208  22.3208
    22.3208  22.3228  22.3228  22.3228  22.3253  22.3450  22.3450  22.3450
    22.3820  22.3820  22.5329  22.5409  22.5409  22.5409  22.5453  22.5453
    22.5517  22.5517  22.5517  22.5800  22.5800  22.5800  22.9870  22.9870
    22.9870  22.9974  22.9974  22.9974  22.9988  23.0649  23.0649  23.0884
    23.0884  23.0884  23.2608  23.2767  23.2767  23.2767  23.2778  23.2778
    23.2844  23.2844  23.2844  23.2863  23.2863  23.2863  23.2867  23.2867
    23.2867  23.2929  23.2929  23.2929  23.3437  23.3437  23.3437  23.5361
    23.5361  23.5361  24.3289  24.3289  24.3289  24.3388  24.3824  24.3824
    24.4434  24.4613  24.4613  24.4613  24.4649  24.4649  24.4649  24.4708
    24.4708  24.4708  24.4778  24.4778  24.6041  24.6041  24.6041  24.6130
    24.6130  24.6130  24.6139  24.6352  24.6352  24.6352  24.6518  24.6518
    24.6898  24.6912  24.6912  24.6912  24.7307  24.7307  24.7660  24.7660
    24.7660  24.7695  24.8059  24.8059  24.8059  24.8197  24.8197  24.8197
    25.1629  25.1629  25.1766  25.2366  25.2366  25.2366  25.5762  25.5762
    25.5762  25.6026  25.6026  25.6026  25.6564  25.6918  25.6918  25.6918
    25.6962  25.6962  25.6962  25.7721  25.7721  25.8178  25.8178  25.8178
    25.8293  25.9371  25.9371  25.9371  26.1766  26.1766  26.1766  26.1853
    26.1884  26.1884  26.1884  26.2652  26.2652  26.2690  26.2690  26.2690
    26.7289  26.7566  26.7566  26.7927  26.7927  26.7927  27.0599  27.0737
    27.0737  27.0737  27.0875  27.0875  27.0875  27.1855  27.1855  27.1893
    27.1893  27.1893  27.3713  27.3874  27.3874  27.4022  27.4022  27.4022
    27.4980  27.4980  27.4980  27.5081  27.5081  27.5081  27.5430  27.5430
    27.6035  27.6035  27.6035  27.6078  27.6078  27.6078  27.6088  27.6088
    27.6088  27.6097  27.6308  27.6308  27.6647  27.6647  27.6647  27.7456
    27.7456  27.7456  28.1832  28.1832  28.8955  28.8955  28.8955  29.4868
    29.4868  29.4868  29.4886  29.4939  29.4939  29.5005  29.5005  29.5005
    29.5551  29.5551  29.5551  29.6745  29.7012  29.7012  29.7012  29.7067
    29.7067  29.7067  29.7946  29.7946  29.8361  29.8361  29.8361  30.0956
    30.0956  30.5744  30.5902  30.5902  30.5902  30.5907  30.5907  30.5907
    30.6019  30.6019  30.6019  30.6100  30.6100  30.6660  30.6732  30.6732
    30.7296  30.7296  30.7296  31.0962  31.0962  31.0962  31.0994  31.0994
    31.0994  31.1015  31.1214  31.1214  31.1214  31.1290  31.1290  31.1317
    31.2948  31.2948  31.3013  31.3013  31.3013  31.4088  31.4682  31.4682
    31.4682  31.5795  31.5795  31.5795  31.9436  31.9753  31.9753  31.9753
    32.1340  32.1340  32.3382  32.3382  32.3382  32.3459  32.3459  32.3459
    32.4464  32.4464  32.5731  32.5823  32.5823  32.5823  32.5984  32.5984
    32.5984  32.5996  32.5996  32.6858  32.6858  32.6858  32.9785  32.9785
    32.9785  32.9838  32.9838  32.9838  32.9863  32.9933  32.9933  32.9933
    33.0550  33.0550  33.0550  33.0624  33.0624  33.0624  33.0628  33.0628
    33.0628  33.0673  33.0673  33.1237  33.1237  33.1237  33.1660  33.1660
    33.1660  33.1736  33.1736  33.3159  33.3159  33.3159  33.3234  33.3338
    33.3338  33.3338  33.3350  33.3350  33.3350  33.4014  33.4014  33.4014
    33.4429  33.4429  33.5041  33.5150  33.5150  33.5150  33.5176  33.5176
    33.5176  33.5424  33.5424  33.5429  33.5429  33.5429  33.5467  33.5467
    33.5467  33.5532  33.5676  33.5676  33.5676  33.8201  33.8201  34.0187
    34.0187  34.0187  34.1645  34.1807  34.1807  34.1807  35.2546  35.2547

     occupation numbers 
     1.0000   1.0000   1.0000   1.0000   1.0000   1.0000   1.0000   1.0000
     1.0000   1.0000   1.0000   1.0000   1.0000   1.0000   1.0000   1.0000
     1.0000   1.0000   1.0000   1.0000   1.0000   1.0000   1.0000   1.0000
     1.0000   1.0000   1.0000   1.0000   1.0000   1.0000   1.0000   1.0000
     1.0000   1.0000   1.0000   1.0000   1.0000   1.0000   1.0000   1.0000
     1.0000   1.0000   1.0000   1.0000   1.0000   1.0000   1.0000   1.0000
     1.0000   1.0000   1.0000   1.0000   1.0000   1.0000   1.0000   1.0000
     1.0000   1.0000   1.0000   1.0000   1.0000   1.0000   1.0000   1.0000
     1.0000   1.0000   1.0000   1.0000   1.0000   1.0000   1.0000   1.0000
     1.0000   1.0000   1.0000   1.0000   1.0000   1.0000   1.0000   1.0000
     1.0000   1.0000   1.0000   1.0000   1.0000   1.0000   1.0000   1.0000
     1.0000   1.0000   1.0000   1.0000   1.0000   1.0000   1.0000   1.0000
     1.0000   1.0000   1.0000   1.0000   1.0000   1.0000   1.0000   1.0000
     1.0000   1.0000   1.0000   1.0000   1.0000   1.0000   1.0000   1.0000
     1.0000   1.0000   1.0000   1.0000   1.0000   1.0000   1.0000   1.0000
     1.0000   1.0000   1.0000   1.0000   1.0000   1.0000   1.0000   1.0000
     1.0000   1.0000   0.9946   0.9946   0.9946   0.0003   0.0001   0.0001
     0.0001   0.0001   0.0001   0.0000   0.0000   0.0000   0.0000   0.0000
     0.0000   0.0000   0.0000   0.0000   0.0000   0.0000   0.0000   0.0000
     0.0000   0.0000   0.0000   0.0000   0.0000   0.0000   0.0000   0.0000
     0.0000   0.0000   0.0000   0.0000   0.0000   0.0000   0.0000   0.0000
     0.0000   0.0000   0.0000   0.0000   0.0000   0.0000   0.0000   0.0000
     0.0000   0.0000   0.0000   0.0000   0.0000   0.0000   0.0000   0.0000
     0.0000   0.0000   0.0000   0.0000   0.0000   0.0000   0.0000   0.0000
     0.0000   0.0000   0.0000   0.0000   0.0000   0.0000   0.0000   0.0000
     0.0000   0.0000   0.0000   0.0000   0.0000   0.0000   0.0000   0.0000
     0.0000   0.0000   0.0000   0.0000   0.0000   0.0000   0.0000   0.0000
     0.0000   0.0000   0.0000   0.0000   0.0000   0.0000   0.0000   0.0000
     0.0000   0.0000   0.0000   0.0000   0.0000   0.0000   0.0000   0.0000
     0.0000   0.0000   0.0000   0.0000   0.0000   0.0000   0.0000   0.0000
     0.0000   0.0000   0.0000   0.0000   0.0000   0.0000   0.0000   0.0000
     0.0000   0.0000   0.0000   0.0000   0.0000   0.0000   0.0000   0.0000
     0.0000   0.0000   0.0000   0.0000   0.0000   0.0000   0.0000   0.0000
     0.0000   0.0000   0.0000   0.0000   0.0000   0.0000   0.0000   0.0000
     0.0000   0.0000   0.0000   0.0000   0.0000   0.0000   0.0000   0.0000
     0.0000   0.0000   0.0000   0.0000   0.0000   0.0000   0.0000   0.0000
     0.0000   0.0000   0.0000   0.0000   0.0000   0.0000   0.0000   0.0000
     0.0000   0.0000   0.0000   0.0000   0.0000   0.0000   0.0000   0.0000
     0.0000   0.0000   0.0000   0.0000   0.0000   0.0000   0.0000   0.0000
     0.0000   0.0000   0.0000   0.0000   0.0000   0.0000   0.0000   0.0000
     0.0000   0.0000   0.0000   0.0000   0.0000   0.0000   0.0000   0.0000
     0.0000   0.0000   0.0000   0.0000   0.0000   0.0000   0.0000   0.0000
     0.0000   0.0000   0.0000   0.0000   0.0000   0.0000   0.0000   0.0000
     0.0000   0.0000   0.0000   0.0000   0.0000   0.0000   0.0000   0.0000
     0.0000   0.0000   0.0000   0.0000   0.0000   0.0000   0.0000   0.0000
     0.0000   0.0000   0.0000   0.0000   0.0000   0.0000   0.0000   0.0000
     0.0000   0.0000   0.0000   0.0000   0.0000   0.0000   0.0000   0.0000
     0.0000   0.0000   0.0000   0.0000   0.0000   0.0000   0.0000   0.0000
     0.0000   0.0000   0.0000   0.0000   0.0000   0.0000   0.0000   0.0000
     0.0000   0.0000   0.0000   0.0000   0.0000   0.0000   0.0000   0.0000
     0.0000   0.0000   0.0000   0.0000   0.0000   0.0000   0.0000   0.0000
     0.0000   0.0000   0.0000   0.0000   0.0000   0.0000   0.0000   0.0000
     0.0000   0.0000   0.0000   0.0000   0.0000   0.0000   0.0000   0.0000
     0.0000   0.0000   0.0000   0.0000   0.0000   0.0000   0.0000   0.0000
     0.0000   0.0000   0.0000   0.0000   0.0000   0.0000   0.0000   0.0000
     0.0000   0.0000   0.0000   0.0000   0.0000   0.0000   0.0000   0.0000
     0.0000   0.0000   0.0000   0.0000   0.0000   0.0000   0.0000   0.0000
     0.0000   0.0000   0.0000   0.0000   0.0000   0.0000   0.0000   0.0000
     0.0000   0.0000   0.0000   0.0000   0.0000   0.0000   0.0000   0.0000
     0.0000   0.0000   0.0000   0.0000   0.0000   0.0000   0.0000   0.0000
     0.0000   0.0000   0.0000   0.0000   0.0000   0.0000   0.0000   0.0000
     0.0000   0.0000   0.0000   0.0000   0.0000   0.0000   0.0000   0.0000
     0.0000   0.0000   0.0000   0.0000   0.0000   0.0000   0.0000   0.0000
     0.0000   0.0000   0.0000   0.0000   0.0000   0.0000   0.0000   0.0000
     0.0000   0.0000   0.0000   0.0000   0.0000   0.0000   0.0000   0.0000
     0.0000   0.0000   0.0000   0.0000   0.0000   0.0000   0.0000   0.0000
     0.0000   0.0000   0.0000   0.0000   0.0000   0.0000   0.0000   0.0000
     0.0000   0.0000   0.0000   0.0000   0.0000   0.0000   0.0000   0.0000
     0.0000   0.0000   0.0000   0.0000   0.0000   0.0000   0.0000   0.0000
     0.0000   0.0000   0.0000   0.0000   0.0000   0.0000   0.0000   0.0000
     0.0000   0.0000   0.0000   0.0000   0.0000   0.0000   0.0000   0.0000
     0.0000   0.0000   0.0000   0.0000   0.0000   0.0000   0.0000   0.0000
     0.0000   0.0000   0.0000   0.0000   0.0000   0.0000   0.0000   0.0000
     0.0000   0.0000   0.0000   0.0000   0.0000   0.0000   0.0000   0.0000
     0.0000   0.0000   0.0000   0.0000   0.0000   0.0000   0.0000   0.0000
     0.0000   0.0000   0.0000   0.0000   0.0000   0.0000   0.0000   0.0000
     0.0000   0.0000   0.0000   0.0000   0.0000   0.0000   0.0000   0.0000
     0.0000   0.0000   0.0000   0.0000   0.0000   0.0000   0.0000   0.0000
     0.0000   0.0000   0.0000   0.0000   0.0000   0.0000   0.0000   0.0000
     0.0000   0.0000   0.0000   0.0000   0.0000   0.0000   0.0000   0.0000
     0.0000   0.0000   0.0000   0.0000   0.0000   0.0000   0.0000   0.0000
     0.0000   0.0000   0.0000   0.0000   0.0000   0.0000   0.0000   0.0000
     0.0000   0.0000   0.0000   0.0000   0.0000   0.0000   0.0000   0.0000
     0.0000   0.0000   0.0000   0.0000   0.0000   0.0000   0.0000   0.0000
     0.0000   0.0000   0.0000   0.0000   0.0000   0.0000   0.0000   0.0000
     0.0000   0.0000   0.0000   0.0000   0.0000   0.0000   0.0000   0.0000
     0.0000   0.0000   0.0000   0.0000   0.0000   0.0000   0.0000   0.0000
     0.0000   0.0000   0.0000   0.0000   0.0000   0.0000   0.0000   0.0000
     0.0000   0.0000   0.0000   0.0000   0.0000   0.0000   0.0000   0.0000
     0.0000   0.0000   0.0000   0.0000   0.0000   0.0000   0.0000   0.0000
     0.0000   0.0000   0.0000   0.0000   0.0000   0.0000   0.0000   0.0000
     0.0000   0.0000   0.0000   0.0000   0.0000   0.0000   0.0000   0.0000
     0.0000   0.0000   0.0000   0.0000   0.0000   0.0000   0.0000   0.0000
     0.0000   0.0000   0.0000   0.0000   0.0000   0.0000   0.0000   0.0000
     0.0000   0.0000   0.0000   0.0000   0.0000   0.0000   0.0000   0.0000
     0.0000   0.0000   0.0000   0.0000   0.0000   0.0000   0.0000   0.0000
     0.0000   0.0000   0.0000   0.0000   0.0000   0.0000   0.0000   0.0000
     0.0000   0.0000   0.0000   0.0000   0.0000   0.0000   0.0000   0.0000
     0.0000   0.0000   0.0000   0.0000   0.0000   0.0000   0.0000   0.0000
     0.0000   0.0000   0.0000   0.0000   0.0000   0.0000   0.0000   0.0000

          k = 0.0000 0.0000-0.0244 ( 51678 PWs)   bands (ev):

   -18.1990 -18.1990 -18.1990 -18.1687 -18.1687  -5.6928  -5.6302  -4.7869
    -4.5765  -4.5765  -4.5748  -4.5735  -4.5730  -4.5730  -4.5725  -3.8957
    -3.7295  -3.7295  -3.7270  -3.7265  -3.7262  -3.7262  -3.7262  -3.5310
    -3.5119  -2.9094  -2.7887  -2.7842  -2.7842  -2.7835  -2.7835  -2.7834
    -2.7830  -1.7972  -1.6862  -1.6862  -1.6817  -1.6811  -1.6811  -1.6811
    -1.6811  -0.6342  -0.5191  -0.5191  -0.5156  -0.5156  -0.5154  -0.5152
    -0.5151  -0.3738  -0.3450  -0.3428  -0.3428  -0.3366  -0.3363  -0.3354
    -0.3354   0.2862   0.3062   1.6811   1.7545   1.7545   1.7567   1.7571
     1.7592   1.7615   1.7615   1.7972   1.7972   1.7992   1.8039   1.8040
     1.8040   1.8042   1.8060   2.6209   2.6209   2.6212   2.6251   2.6256
     2.6277   2.6277   2.6300   3.3227   3.3242   3.3269   3.3269   3.3286
     3.3313   3.3350   3.3350   3.4481   3.4481   3.4537   3.4537   3.4613
     3.4624   3.4624   3.4628   3.4648   3.4663   3.4663   3.4680   3.5659
     3.5799   3.5799   3.5827   3.5844   3.5861   3.5861   3.5864   4.6243
     4.6270   4.6270   4.6289   4.6317   4.6317   4.6327   4.6407   4.6953
     4.7187   4.7938   4.7974   4.7974   4.7974   4.7974   4.8008   4.8042
     4.8042   5.2514   5.2514   5.2618   5.2618   6.5771   6.5912   7.5049
     7.5097   7.9255   7.9433   7.9450   7.9450   7.9480   7.9647   7.9666
     7.9666   8.0109   8.0238   8.2752   8.3281   8.3281   8.3302   8.3324
     8.3340   8.3340   8.3715   8.4356   8.4384   8.4403   8.4406   8.4406
     8.4453   8.4676   8.4676   8.8369   8.8468   8.8488   8.8488   8.8516
     8.8730   8.8730   8.8761   9.6060   9.6114   9.6114   9.6169   9.6267
     9.6267   9.6277   9.6390   9.7300   9.7300   9.7426   9.7426   9.8391
     9.8712   9.8740   9.8740   9.8747   9.8773   9.8792   9.8792   9.8859
     9.8873   9.8885   9.8898   9.8898   9.9378   9.9378   9.9405  10.1848
    10.1849  10.1849  10.1864  10.2004  10.2228  10.2228  10.2556  10.2904
    10.3122  10.5308  10.5313  10.5316  10.5316  10.5404  10.5404  10.5488
    10.5913  11.1906  11.1906  11.1908  11.1931  11.1931  11.1938  11.2133
    11.2342  11.5021  11.5024  11.5026  11.5026  11.5034  11.5180  11.5180
    11.6121  12.5346  12.5518  12.9950  13.0010  13.0051  13.0051  13.0179
    13.0353  13.0419  13.0419  13.7624  13.7850  13.7850  13.7855  13.7859
    13.7868  13.7868  13.8029  13.8101  13.8198  13.8198  13.8230  13.8230
    13.8232  13.8239  13.8278  13.8281  13.8281  13.8300  13.8302  13.8355
    13.8355  13.8410  13.8435  13.8458  13.8473  13.8585  13.8585  13.8711
    13.9224  13.9224  13.9521  14.0285  14.0285  14.0517  14.0517  14.1044
    14.1094  14.1138  14.1191  14.1193  14.1247  14.1247  14.2351  14.2351
    14.2712  14.8244  14.8416  15.1226  15.1282  15.1282  15.1323  15.1404
    15.1404  15.1506  15.1934  15.2224  15.2281  15.2281  15.2455  15.2726
    15.2726  15.2743  15.2891  16.2198  16.2212  16.2275  16.2275  16.2472
    16.2501  16.2501  16.2596  16.4994  16.5417  16.5422  16.5429  16.5429
    16.5435  16.5677  16.5677  16.5808  16.5849  16.6066  16.7328  16.9231
    16.9363  16.9386  16.9411  16.9411  16.9453  16.9693  16.9693  17.1164
    17.1271  17.1271  17.1331  17.1373  17.1373  17.1641  17.2133  17.6477
    17.6477  17.6685  17.6685  18.0283  18.0283  18.0335  18.0342  18.0342
    18.0357  18.0609  18.1234  18.1262  18.1380  18.3764  18.3786  18.3805
    18.3805  18.4080  18.4080  18.4218  18.4811  18.8375  18.8396  18.8396
    18.8399  18.8483  18.8483  18.8525  18.9768  18.9820  18.9820  19.0453
    19.0453  19.4437  19.4672  19.7927  19.7951  19.7965  19.7965  19.8051
    19.8104  19.8595  19.8595  20.0282  20.0300  20.0305  20.0346  20.0346
    20.0903  20.0955  20.0955  20.1666  20.1673  20.1700  20.1700  20.1772
    20.1845  20.1845  20.2133  20.2333  20.2457  20.2479  20.2558  20.2558
    20.3468  20.3789  20.3789  20.4784  20.4847  20.4886  20.4886  20.4953
    20.4953  20.5068  20.5406  20.5463  20.5463  20.5528  20.5636  20.5756
    20.5789  20.5789  20.6017  20.9815  20.9815  20.9837  20.9957  20.9957
    21.0027  21.0131  21.0143  21.2073  21.2943  21.4795  21.4977  21.4977
    21.5047  21.5094  21.5242  21.5336  21.5336  21.7811  21.7820  21.7820
    21.7872  21.7872  21.8032  21.8144  21.8359  21.9037  21.9654  22.2092
    22.2231  22.2231  22.2424  22.2459  22.2719  22.2841  22.2841  22.4728
    22.4764  22.4764  22.4884  22.4884  22.5166  22.5639  22.5773  22.7357
    22.7357  22.7458  22.7458  22.7504  22.7630  22.7630  22.7641  22.8018
    22.8198  22.8565  22.8565  23.0010  23.0145  23.2656  23.2656  23.2745
    23.2804  23.2853  23.2853  23.2920  23.4770  24.0922  24.0927  24.0998
    24.0998  24.1035  24.1154  24.1154  24.1168  24.2447  24.2447  24.2461
    24.2597  24.2774  24.2842  24.2842  24.3922  24.5268  24.5315  24.5315
    24.5351  24.5388  24.5388  24.5699  24.6678  24.7141  24.8130  24.9392
    24.9447  24.9496  24.9496  24.9527  24.9527  24.9578  24.9673  24.9882
    24.9884  24.9885  24.9925  24.9925  25.0366  25.0800  25.0800  25.2425
    25.2440  25.2455  25.2455  25.2511  25.2603  25.2603  25.5712  25.8247
    25.8275  25.8405  25.8405  25.8892  25.8892  25.9077  25.9286  26.3550
    26.3599  26.3599  26.3611  26.3625  26.3675  26.3804  26.3804  26.3895
    26.3907  26.3919  26.3997  26.3997  26.4099  26.4099  26.4413  26.4413
    26.5647  26.6370  26.6370  26.9969  27.0026  27.0026  27.0141  27.0564
    27.0564  27.0737  27.0862  27.5317  27.5338  27.5343  27.5343  27.5415
    27.5418  27.5418  27.5463  27.5505  27.5505  27.5519  27.5989  27.6045
    27.6045  27.6577  27.6750  27.7264  27.9029  27.9451  27.9451  27.9485
    27.9501  27.9501  27.9573  27.9602  27.9771  27.9829  27.9829  27.9893
    28.0032  28.0078  28.0210  28.0894  28.0894  28.2179  28.2188  28.2188
    28.2209  28.2250  28.2699  28.2699  28.3443  28.3518  28.3518  28.3537
    28.3902  28.4245  28.4245  28.4345  28.4951  28.7434  28.7807  28.8622
    28.8633  28.8633  28.8747  28.8833  28.9205  28.9851  28.9851  29.1316
    29.1316  29.1345  29.1378  29.1474  29.1474  29.1671  29.2065  29.2274
    29.2441  29.2567  29.2594  29.2655  29.2655  29.2700  29.2806  29.2899
    29.3188  29.3188  29.4912  29.4928  29.7212  29.9292  29.9310  29.9310
    29.9393  29.9393  29.9440  29.9443  29.9443  29.9557  29.9616  30.1082
    30.1082  30.4433  30.4433  30.4511  30.4707  30.4759  30.4759  30.5044
    30.5094  30.6558  30.6558  30.6657  30.6740  30.6742  30.6986  30.7478
    30.7478  30.8882  30.8970  30.8970  30.9002  30.9131  30.9131  30.9266
    30.9583  31.0318  31.0459  31.0459  31.0604  31.1291  31.1729  31.2360
    31.2409  31.2409  31.3492  31.7196  31.7211  31.7240  31.7393  31.7428
    31.7428  31.7823  31.7823  31.8239  31.8275  31.8312  31.8312  31.8772
    31.8772  31.9696  32.0123  32.2494  32.2926  32.6245  32.6245  32.7032
    32.7032  32.8357  32.9038  33.1675  33.1695  33.1733  33.1733  33.1924
    33.1924  33.2395  33.2916  33.2957  33.2957  33.3075  33.3085  33.3109
    33.3159  33.3336  33.3336  33.3562  33.3596  33.3619  33.3619  33.3710
    33.3710  33.5281  33.6158  33.6424  33.6499  33.6499  33.6530  33.6644
    33.6644  33.6714  33.6734  33.6736  33.6752  33.6752  33.6765  33.7389
    33.7534  33.8145  33.8145  33.8829  33.8829  33.8836  33.8893  34.0005
    34.0246  34.0732  34.0732  34.5229  34.5303  34.5303  34.5530  34.5829
    34.5840  34.6818  34.6818  34.8687  34.8794  34.9124  34.9126  34.9364
    34.9364  34.9528  34.9563  34.9617  34.9618  34.9650  34.9826  34.9828

     occupation numbers 
     1.0000   1.0000   1.0000   1.0000   1.0000   1.0000   1.0000   1.0000
     1.0000   1.0000   1.0000   1.0000   1.0000   1.0000   1.0000   1.0000
     1.0000   1.0000   1.0000   1.0000   1.0000   1.0000   1.0000   1.0000
     1.0000   1.0000   1.0000   1.0000   1.0000   1.0000   1.0000   1.0000
     1.0000   1.0000   1.0000   1.0000   1.0000   1.0000   1.0000   1.0000
     1.0000   1.0000   1.0000   1.0000   1.0000   1.0000   1.0000   1.0000
     1.0000   1.0000   1.0000   1.0000   1.0000   1.0000   1.0000   1.0000
     1.0000   1.0000   1.0000   1.0000   1.0000   1.0000   1.0000   1.0000
     1.0000   1.0000   1.0000   1.0000   1.0000   1.0000   1.0000   1.0000
     1.0000   1.0000   1.0000   1.0000   1.0000   1.0000   1.0000   1.0000
     1.0000   1.0000   1.0000   1.0000   1.0000   1.0000   1.0000   1.0000
     1.0000   1.0000   1.0000   1.0000   1.0000   1.0000   1.0000   1.0000
     1.0000   1.0000   1.0000   1.0000   1.0000   1.0000   1.0000   1.0000
     1.0000   1.0000   1.0000   1.0000   1.0000   1.0000   1.0000   1.0000
     1.0000   1.0000   1.0000   1.0000   1.0000   1.0000   1.0000   1.0000
     1.0000   1.0000   1.0000   1.0000   1.0000   1.0000   1.0000   1.0000
     1.0000   1.0000   1.0000   1.0000   1.0000   0.0032   0.0020   0.0000
     0.0000   0.0000   0.0000   0.0000   0.0000   0.0000   0.0000   0.0000
     0.0000   0.0000   0.0000   0.0000   0.0000   0.0000   0.0000   0.0000
     0.0000   0.0000   0.0000   0.0000   0.0000   0.0000   0.0000   0.0000
     0.0000   0.0000   0.0000   0.0000   0.0000   0.0000   0.0000   0.0000
     0.0000   0.0000   0.0000   0.0000   0.0000   0.0000   0.0000   0.0000
     0.0000   0.0000   0.0000   0.0000   0.0000   0.0000   0.0000   0.0000
     0.0000   0.0000   0.0000   0.0000   0.0000   0.0000   0.0000   0.0000
     0.0000   0.0000   0.0000   0.0000   0.0000   0.0000   0.0000   0.0000
     0.0000   0.0000   0.0000   0.0000   0.0000   0.0000   0.0000   0.0000
     0.0000   0.0000   0.0000   0.0000   0.0000   0.0000   0.0000   0.0000
     0.0000   0.0000   0.0000   0.0000   0.0000   0.0000   0.0000   0.0000
     0.0000   0.0000   0.0000   0.0000   0.0000   0.0000   0.0000   0.0000
     0.0000   0.0000   0.0000   0.0000   0.0000   0.0000   0.0000   0.0000
     0.0000   0.0000   0.0000   0.0000   0.0000   0.0000   0.0000   0.0000
     0.0000   0.0000   0.0000   0.0000   0.0000   0.0000   0.0000   0.0000
     0.0000   0.0000   0.0000   0.0000   0.0000   0.0000   0.0000   0.0000
     0.0000   0.0000   0.0000   0.0000   0.0000   0.0000   0.0000   0.0000
     0.0000   0.0000   0.0000   0.0000   0.0000   0.0000   0.0000   0.0000
     0.0000   0.0000   0.0000   0.0000   0.0000   0.0000   0.0000   0.0000
     0.0000   0.0000   0.0000   0.0000   0.0000   0.0000   0.0000   0.0000
     0.0000   0.0000   0.0000   0.0000   0.0000   0.0000   0.0000   0.0000
     0.0000   0.0000   0.0000   0.0000   0.0000   0.0000   0.0000   0.0000
     0.0000   0.0000   0.0000   0.0000   0.0000   0.0000   0.0000   0.0000
     0.0000   0.0000   0.0000   0.0000   0.0000   0.0000   0.0000   0.0000
     0.0000   0.0000   0.0000   0.0000   0.0000   0.0000   0.0000   0.0000
     0.0000   0.0000   0.0000   0.0000   0.0000   0.0000   0.0000   0.0000
     0.0000   0.0000   0.0000   0.0000   0.0000   0.0000   0.0000   0.0000
     0.0000   0.0000   0.0000   0.0000   0.0000   0.0000   0.0000   0.0000
     0.0000   0.0000   0.0000   0.0000   0.0000   0.0000   0.0000   0.0000
     0.0000   0.0000   0.0000   0.0000   0.0000   0.0000   0.0000   0.0000
     0.0000   0.0000   0.0000   0.0000   0.0000   0.0000   0.0000   0.0000
     0.0000   0.0000   0.0000   0.0000   0.0000   0.0000   0.0000   0.0000
     0.0000   0.0000   0.0000   0.0000   0.0000   0.0000   0.0000   0.0000
     0.0000   0.0000   0.0000   0.0000   0.0000   0.0000   0.0000   0.0000
     0.0000   0.0000   0.0000   0.0000   0.0000   0.0000   0.0000   0.0000
     0.0000   0.0000   0.0000   0.0000   0.0000   0.0000   0.0000   0.0000
     0.0000   0.0000   0.0000   0.0000   0.0000   0.0000   0.0000   0.0000
     0.0000   0.0000   0.0000   0.0000   0.0000   0.0000   0.0000   0.0000
     0.0000   0.0000   0.0000   0.0000   0.0000   0.0000   0.0000   0.0000
     0.0000   0.0000   0.0000   0.0000   0.0000   0.0000   0.0000   0.0000
     0.0000   0.0000   0.0000   0.0000   0.0000   0.0000   0.0000   0.0000
     0.0000   0.0000   0.0000   0.0000   0.0000   0.0000   0.0000   0.0000
     0.0000   0.0000   0.0000   0.0000   0.0000   0.0000   0.0000   0.0000
     0.0000   0.0000   0.0000   0.0000   0.0000   0.0000   0.0000   0.0000
     0.0000   0.0000   0.0000   0.0000   0.0000   0.0000   0.0000   0.0000
     0.0000   0.0000   0.0000   0.0000   0.0000   0.0000   0.0000   0.0000
     0.0000   0.0000   0.0000   0.0000   0.0000   0.0000   0.0000   0.0000
     0.0000   0.0000   0.0000   0.0000   0.0000   0.0000   0.0000   0.0000
     0.0000   0.0000   0.0000   0.0000   0.0000   0.0000   0.0000   0.0000
     0.0000   0.0000   0.0000   0.0000   0.0000   0.0000   0.0000   0.0000
     0.0000   0.0000   0.0000   0.0000   0.0000   0.0000   0.0000   0.0000
     0.0000   0.0000   0.0000   0.0000   0.0000   0.0000   0.0000   0.0000
     0.0000   0.0000   0.0000   0.0000   0.0000   0.0000   0.0000   0.0000
     0.0000   0.0000   0.0000   0.0000   0.0000   0.0000   0.0000   0.0000
     0.0000   0.0000   0.0000   0.0000   0.0000   0.0000   0.0000   0.0000
     0.0000   0.0000   0.0000   0.0000   0.0000   0.0000   0.0000   0.0000
     0.0000   0.0000   0.0000   0.0000   0.0000   0.0000   0.0000   0.0000
     0.0000   0.0000   0.0000   0.0000   0.0000   0.0000   0.0000   0.0000
     0.0000   0.0000   0.0000   0.0000   0.0000   0.0000   0.0000   0.0000
     0.0000   0.0000   0.0000   0.0000   0.0000   0.0000   0.0000   0.0000
     0.0000   0.0000   0.0000   0.0000   0.0000   0.0000   0.0000   0.0000
     0.0000   0.0000   0.0000   0.0000   0.0000   0.0000   0.0000   0.0000
     0.0000   0.0000   0.0000   0.0000   0.0000   0.0000   0.0000   0.0000
     0.0000   0.0000   0.0000   0.0000   0.0000   0.0000   0.0000   0.0000
     0.0000   0.0000   0.0000   0.0000   0.0000   0.0000   0.0000   0.0000
     0.0000   0.0000   0.0000   0.0000   0.0000   0.0000   0.0000   0.0000
     0.0000   0.0000   0.0000   0.0000   0.0000   0.0000   0.0000   0.0000
     0.0000   0.0000   0.0000   0.0000   0.0000   0.0000   0.0000   0.0000
     0.0000   0.0000   0.0000   0.0000   0.0000   0.0000   0.0000   0.0000
     0.0000   0.0000   0.0000   0.0000   0.0000   0.0000   0.0000   0.0000
     0.0000   0.0000   0.0000   0.0000   0.0000   0.0000   0.0000   0.0000
     0.0000   0.0000   0.0000   0.0000   0.0000   0.0000   0.0000   0.0000
     0.0000   0.0000   0.0000   0.0000   0.0000   0.0000   0.0000   0.0000
     0.0000   0.0000   0.0000   0.0000   0.0000   0.0000   0.0000   0.0000
     0.0000   0.0000   0.0000   0.0000   0.0000   0.0000   0.0000   0.0000
     0.0000   0.0000   0.0000   0.0000   0.0000   0.0000   0.0000   0.0000
     0.0000   0.0000   0.0000   0.0000   0.0000   0.0000   0.0000   0.0000
     0.0000   0.0000   0.0000   0.0000   0.0000   0.0000   0.0000   0.0000
     0.0000   0.0000   0.0000   0.0000   0.0000   0.0000   0.0000   0.0000
     0.0000   0.0000   0.0000   0.0000   0.0000   0.0000   0.0000   0.0000
     0.0000   0.0000   0.0000   0.0000   0.0000   0.0000   0.0000   0.0000
     0.0000   0.0000   0.0000   0.0000   0.0000   0.0000   0.0000   0.0000
     0.0000   0.0000   0.0000   0.0000   0.0000   0.0000   0.0000   0.0000

          k = 0.0000-0.0244-0.0244 ( 51656 PWs)   bands (ev):

   -18.1990 -18.1990 -18.1990 -18.1687 -18.1687  -5.4835  -5.3632  -5.3632
    -5.3621  -4.5405  -4.3511  -4.3464  -4.3464  -4.3453  -4.3452  -4.3452
    -4.3451  -3.5004  -3.3149  -3.3149  -3.3095  -3.3095  -3.3094  -3.3093
    -3.3093  -3.1176  -3.0308  -3.0308  -3.0289  -3.0286  -3.0285  -3.0281
    -3.0281  -2.2276  -2.1715  -2.1701  -2.1701  -1.2333  -1.1777  -1.1727
    -1.1727  -0.8132  -0.7496  -0.7496  -0.7475  -0.7427  -0.7422  -0.7418
    -0.7418  -0.0062   0.0874   0.0886   0.0886   0.0889   0.0889   0.0892
     0.0895   0.7042   0.7526   0.7526   0.7540   0.7577   0.7592   0.7592
     0.7623   1.7252   1.7252   1.7263   1.7311   2.5671   2.5841   2.5842
     2.5842   2.5872   2.5909   2.5909   2.5910   2.6741   2.6741   2.6773
     2.6780   2.6781   2.6802   2.6804   2.6804   3.2843   3.2875   3.2882
     3.2882   3.2903   3.2903   3.2915   3.2922   3.3327   3.3583   3.3655
     3.3655   3.6326   3.6326   3.6345   3.6362   3.8903   3.8903   3.8945
     3.8949   3.8955   3.8955   3.8982   3.8993   4.1923   4.2098   4.2106
     4.2106   4.2133   4.2137   4.2137   4.2220   4.4177   4.4188   4.4188
     4.4305   4.4710   4.4710   4.4719   4.4737   4.4738   4.4752   4.4827
     4.4827   5.7699   5.7712   5.7816   5.7816   7.1675   7.1675   7.1687
     7.1890   7.9056   7.9258   7.9280   7.9280   7.9338   7.9428   7.9505
     7.9505   8.2028   8.2230   8.2240   8.2240   8.2249   8.2296   8.2296
     8.2659   8.6093   8.6165   8.6180   8.6180   8.6189   8.6366   8.6366
     8.6506   8.9714   9.0262   9.0262   9.0437   9.0470   9.0480   9.0484
     9.0484   9.0516   9.0556   9.0616   9.0616   9.1174   9.1179   9.1179
     9.1180   9.1227   9.1312   9.1312   9.1427   9.1456   9.1689   9.1817
     9.1817   9.3457   9.3696   9.3699   9.3699   9.6153   9.6331   9.6331
     9.6362   9.6369   9.6376   9.6657   9.6657  10.1101  10.1101  10.1189
    10.1390  10.4832  10.4836  10.4848  10.4883  10.4883  10.5178  10.5178
    10.5350  11.4302  11.4433  11.4451  11.4451  11.4452  11.4516  11.4516
    11.4753  11.4940  11.4940  11.5046  11.5214  11.7383  11.7383  11.7391
    11.7434  11.7470  11.7470  11.7570  11.7906  11.9074  11.9074  11.9081
    11.9097  11.9176  11.9176  11.9422  12.0303  12.3836  12.3933  12.3933
    12.4581  13.0909  13.0946  13.0946  13.0967  13.1092  13.1223  13.1355
    13.1355  13.3507  13.3605  13.3605  13.3651  13.3682  13.3687  13.3870
    13.3870  13.4568  13.4863  13.4863  13.4876  13.9617  13.9646  13.9725
    13.9725  13.9729  13.9730  13.9751  13.9761  13.9761  14.0250  14.0264
    14.0264  14.0548  14.0854  14.0854  14.0888  14.1614  14.1623  14.1840
    14.1840  14.5374  14.5845  14.5845  14.5881  15.2539  15.2568  15.2568
    15.2598  15.2633  15.2711  15.2711  15.2905  15.3500  15.3578  15.3583
    15.3596  15.3596  15.4228  15.4228  15.4877  15.5502  15.5741  15.5798
    15.5798  15.7918  15.8204  15.8286  15.8286  15.8290  15.8474  15.8474
    15.8672  16.1476  16.1571  16.1571  16.1635  16.1642  16.1735  16.1735
    16.1743  16.1761  16.1858  16.1858  16.2121  16.2121  16.2399  16.2496
    16.2612  16.5451  16.5465  16.5465  16.5540  16.5540  16.5691  16.5753
    16.7243  17.0994  17.1056  17.1056  17.1302  17.6376  17.6386  17.6386
    17.6399  17.6512  17.6512  17.6646  17.7261  18.2877  18.2879  18.2879
    18.2885  18.3092  18.3102  18.3119  18.3119  18.3202  18.3202  18.3581
    18.3939  18.8074  18.8151  18.8151  18.8171  18.8248  18.8248  18.8596
    18.8846  19.2659  19.2688  19.2758  19.2758  19.2763  19.2863  19.2921
    19.2952  19.2952  19.3106  19.3106  19.3238  19.3238  19.3255  19.3256
    19.3587  19.3719  19.3801  19.3820  19.3904  19.3904  19.4697  19.5227
    19.5227  20.0970  20.0971  20.0971  20.0995  20.1040  20.1126  20.1126
    20.1375  20.4281  20.4398  20.4398  20.4595  20.5338  20.5340  20.5340
    20.5415  20.5415  20.5455  20.5457  20.5640  20.5640  20.5819  20.5993
    20.6070  20.8891  20.9380  20.9380  20.9535  21.1169  21.1189  21.1189
    21.1263  21.1431  21.1557  21.2172  21.2172  21.3979  21.4010  21.4010
    21.4077  21.4112  21.4270  21.4270  21.4330  21.4339  21.4599  21.4599
    21.4809  21.4934  21.4983  21.4983  21.5127  21.5224  21.5801  21.5801
    21.6273  21.6797  21.6873  21.6896  21.6896  21.7636  21.7636  21.7729
    21.8062  22.5729  22.5789  22.5789  22.5815  22.5885  22.5938  22.5938
    22.6050  22.6059  22.6089  22.6089  22.6108  22.6123  22.6222  22.6222
    22.7297  22.9423  22.9683  22.9843  22.9843  22.9927  22.9927  23.0008
    23.0448  23.0526  23.0526  23.0840  23.1563  23.5260  23.5263  23.5263
    23.5333  23.5482  23.5482  23.5694  23.5770  23.6313  23.6313  23.6881
    23.7083  23.9179  23.9295  23.9520  23.9520  23.9963  23.9990  23.9990
    24.0175  24.0175  24.0227  24.0744  24.0777  24.3130  24.3153  24.3153
    24.3203  24.3662  24.3791  24.3791  24.3957  24.4847  24.4989  24.4989
    24.5031  24.5194  24.5194  24.5826  24.6521  25.3602  25.3602  25.3615
    25.3757  25.3757  25.3872  25.3950  25.3973  25.4281  25.4303  25.4303
    25.4355  25.4372  25.4372  25.4548  25.5378  25.5378  25.5456  25.5783
    25.5901  25.7551  25.7551  25.7671  25.7952  25.8136  25.8141  25.8141
    25.8441  25.8512  25.8512  25.9212  26.0936  26.6457  26.6468  26.6468
    26.6696  26.6697  26.6921  26.6921  26.7090  26.7601  26.7755  26.7755
    26.8076  26.8338  26.8413  26.8413  26.8466  26.8587  26.9134  26.9134
    26.9265  27.0242  27.0347  27.1270  27.1270  27.4651  27.4679  27.4683
    27.4712  27.4712  27.4776  27.4781  27.4781  27.5725  27.5823  27.5823
    27.6116  27.6161  27.6179  27.6268  27.6276  27.6276  27.6563  27.6907
    27.6907  27.7166  27.7304  27.7310  27.7375  27.7375  27.7507  27.7507
    27.7607  27.7630  27.7631  27.7637  27.7637  27.7731  27.7999  27.8105
    27.8105  27.8253  27.8268  27.8268  27.8927  27.9218  28.1446  28.1446
    28.3754  28.3859  28.3859  28.3952  28.3963  28.3963  28.4526  28.5036
    28.5446  28.7467  28.7568  28.7598  28.7598  28.7898  28.7903  28.7903
    28.8326  28.8706  28.8706  28.9825  29.1507  29.3506  29.3506  29.3525
    29.3548  29.3655  29.3655  29.3724  29.3893  29.3940  29.3940  29.4010
    29.4222  29.4500  29.4500  29.5268  29.6372  29.9855  29.9855  29.9864
    30.0059  30.0239  30.1476  30.1476  30.2144  30.5872  30.5998  30.5998
    30.5999  30.6068  30.6120  30.6798  30.6798  30.7952  30.7952  30.7957
    30.8390  30.8471  30.8644  30.8815  30.8815  31.0278  31.0278  31.0374
    31.0600  31.2732  31.2765  31.2785  31.2785  31.2839  31.2839  31.3184
    31.3353  31.3411  31.3411  31.3415  31.3561  31.3771  31.3802  31.3802
    31.4001  31.4001  31.4038  31.4132  31.4137  31.4137  31.4797  31.5638
    31.6220  31.7918  31.8078  31.8078  31.8466  32.0405  32.0415  32.0415
    32.0417  32.0524  32.0558  32.0623  32.0623  32.0746  32.0746  32.0898
    32.1449  32.1449  32.1515  32.1618  32.1771  32.2940  32.2940  32.3416
    32.4601  32.5570  32.5570  32.6134  32.6246  33.2480  33.2480  33.2501
    33.2507  33.2521  33.2617  33.3430  33.3430  33.3766  33.3812  33.3864
    33.3864  33.3922  33.4094  33.6340  33.6340  34.0102  34.0139  34.0139
    34.0240  34.0240  34.0350  34.0379  34.0515  34.0819  34.0876  34.0876
    34.0931  34.1109  34.1546  34.1977  34.1977  34.3664  34.5010  34.5010
    34.5498  34.8735  34.8735  34.8741  34.8949  34.9013  34.9038  34.9039
    34.9169  34.9169  34.9263  34.9454  35.0071  35.0114  35.0173  35.0173
    35.0531  35.0531  35.0794  35.0812  35.1016  35.2879  35.2899  35.3615

     occupation numbers 
     1.0000   1.0000   1.0000   1.0000   1.0000   1.0000   1.0000   1.0000
     1.0000   1.0000   1.0000   1.0000   1.0000   1.0000   1.0000   1.0000
     1.0000   1.0000   1.0000   1.0000   1.0000   1.0000   1.0000   1.0000
     1.0000   1.0000   1.0000   1.0000   1.0000   1.0000   1.0000   1.0000
     1.0000   1.0000   1.0000   1.0000   1.0000   1.0000   1.0000   1.0000
     1.0000   1.0000   1.0000   1.0000   1.0000   1.0000   1.0000   1.0000
     1.0000   1.0000   1.0000   1.0000   1.0000   1.0000   1.0000   1.0000
     1.0000   1.0000   1.0000   1.0000   1.0000   1.0000   1.0000   1.0000
     1.0000   1.0000   1.0000   1.0000   1.0000   1.0000   1.0000   1.0000
     1.0000   1.0000   1.0000   1.0000   1.0000   1.0000   1.0000   1.0000
     1.0000   1.0000   1.0000   1.0000   1.0000   1.0000   1.0000   1.0000
     1.0000   1.0000   1.0000   1.0000   1.0000   1.0000   1.0000   1.0000
     1.0000   1.0000   1.0000   1.0000   1.0000   1.0000   1.0000   1.0000
     1.0000   1.0000   1.0000   1.0000   1.0000   1.0000   1.0000   1.0000
     1.0000   1.0000   1.0000   1.0000   1.0000   1.0000   1.0000   1.0000
     1.0000   1.0000   1.0000   1.0000   1.0000   1.0000   1.0000   1.0000
     1.0000   1.0000   1.0000   1.0000   1.0000   0.0000   0.0000   0.0000
     0.0000   0.0000   0.0000   0.0000   0.0000   0.0000   0.0000   0.0000
     0.0000   0.0000   0.0000   0.0000   0.0000   0.0000   0.0000   0.0000
     0.0000   0.0000   0.0000   0.0000   0.0000   0.0000   0.0000   0.0000
     0.0000   0.0000   0.0000   0.0000   0.0000   0.0000   0.0000   0.0000
     0.0000   0.0000   0.0000   0.0000   0.0000   0.0000   0.0000   0.0000
     0.0000   0.0000   0.0000   0.0000   0.0000   0.0000   0.0000   0.0000
     0.0000   0.0000   0.0000   0.0000   0.0000   0.0000   0.0000   0.0000
     0.0000   0.0000   0.0000   0.0000   0.0000   0.0000   0.0000   0.0000
     0.0000   0.0000   0.0000   0.0000   0.0000   0.0000   0.0000   0.0000
     0.0000   0.0000   0.0000   0.0000   0.0000   0.0000   0.0000   0.0000
     0.0000   0.0000   0.0000   0.0000   0.0000   0.0000   0.0000   0.0000
     0.0000   0.0000   0.0000   0.0000   0.0000   0.0000   0.0000   0.0000
     0.0000   0.0000   0.0000   0.0000   0.0000   0.0000   0.0000   0.0000
     0.0000   0.0000   0.0000   0.0000   0.0000   0.0000   0.0000   0.0000
     0.0000   0.0000   0.0000   0.0000   0.0000   0.0000   0.0000   0.0000
     0.0000   0.0000   0.0000   0.0000   0.0000   0.0000   0.0000   0.0000
     0.0000   0.0000   0.0000   0.0000   0.0000   0.0000   0.0000   0.0000
     0.0000   0.0000   0.0000   0.0000   0.0000   0.0000   0.0000   0.0000
     0.0000   0.0000   0.0000   0.0000   0.0000   0.0000   0.0000   0.0000
     0.0000   0.0000   0.0000   0.0000   0.0000   0.0000   0.0000   0.0000
     0.0000   0.0000   0.0000   0.0000   0.0000   0.0000   0.0000   0.0000
     0.0000   0.0000   0.0000   0.0000   0.0000   0.0000   0.0000   0.0000
     0.0000   0.0000   0.0000   0.0000   0.0000   0.0000   0.0000   0.0000
     0.0000   0.0000   0.0000   0.0000   0.0000   0.0000   0.0000   0.0000
     0.0000   0.0000   0.0000   0.0000   0.0000   0.0000   0.0000   0.0000
     0.0000   0.0000   0.0000   0.0000   0.0000   0.0000   0.0000   0.0000
     0.0000   0.0000   0.0000   0.0000   0.0000   0.0000   0.0000   0.0000
     0.0000   0.0000   0.0000   0.0000   0.0000   0.0000   0.0000   0.0000
     0.0000   0.0000   0.0000   0.0000   0.0000   0.0000   0.0000   0.0000
     0.0000   0.0000   0.0000   0.0000   0.0000   0.0000   0.0000   0.0000
     0.0000   0.0000   0.0000   0.0000   0.0000   0.0000   0.0000   0.0000
     0.0000   0.0000   0.0000   0.0000   0.0000   0.0000   0.0000   0.0000
     0.0000   0.0000   0.0000   0.0000   0.0000   0.0000   0.0000   0.0000
     0.0000   0.0000   0.0000   0.0000   0.0000   0.0000   0.0000   0.0000
     0.0000   0.0000   0.0000   0.0000   0.0000   0.0000   0.0000   0.0000
     0.0000   0.0000   0.0000   0.0000   0.0000   0.0000   0.0000   0.0000
     0.0000   0.0000   0.0000   0.0000   0.0000   0.0000   0.0000   0.0000
     0.0000   0.0000   0.0000   0.0000   0.0000   0.0000   0.0000   0.0000
     0.0000   0.0000   0.0000   0.0000   0.0000   0.0000   0.0000   0.0000
     0.0000   0.0000   0.0000   0.0000   0.0000   0.0000   0.0000   0.0000
     0.0000   0.0000   0.0000   0.0000   0.0000   0.0000   0.0000   0.0000
     0.0000   0.0000   0.0000   0.0000   0.0000   0.0000   0.0000   0.0000
     0.0000   0.0000   0.0000   0.0000   0.0000   0.0000   0.0000   0.0000
     0.0000   0.0000   0.0000   0.0000   0.0000   0.0000   0.0000   0.0000
     0.0000   0.0000   0.0000   0.0000   0.0000   0.0000   0.0000   0.0000
     0.0000   0.0000   0.0000   0.0000   0.0000   0.0000   0.0000   0.0000
     0.0000   0.0000   0.0000   0.0000   0.0000   0.0000   0.0000   0.0000
     0.0000   0.0000   0.0000   0.0000   0.0000   0.0000   0.0000   0.0000
     0.0000   0.0000   0.0000   0.0000   0.0000   0.0000   0.0000   0.0000
     0.0000   0.0000   0.0000   0.0000   0.0000   0.0000   0.0000   0.0000
     0.0000   0.0000   0.0000   0.0000   0.0000   0.0000   0.0000   0.0000
     0.0000   0.0000   0.0000   0.0000   0.0000   0.0000   0.0000   0.0000
     0.0000   0.0000   0.0000   0.0000   0.0000   0.0000   0.0000   0.0000
     0.0000   0.0000   0.0000   0.0000   0.0000   0.0000   0.0000   0.0000
     0.0000   0.0000   0.0000   0.0000   0.0000   0.0000   0.0000   0.0000
     0.0000   0.0000   0.0000   0.0000   0.0000   0.0000   0.0000   0.0000
     0.0000   0.0000   0.0000   0.0000   0.0000   0.0000   0.0000   0.0000
     0.0000   0.0000   0.0000   0.0000   0.0000   0.0000   0.0000   0.0000
     0.0000   0.0000   0.0000   0.0000   0.0000   0.0000   0.0000   0.0000
     0.0000   0.0000   0.0000   0.0000   0.0000   0.0000   0.0000   0.0000
     0.0000   0.0000   0.0000   0.0000   0.0000   0.0000   0.0000   0.0000
     0.0000   0.0000   0.0000   0.0000   0.0000   0.0000   0.0000   0.0000
     0.0000   0.0000   0.0000   0.0000   0.0000   0.0000   0.0000   0.0000
     0.0000   0.0000   0.0000   0.0000   0.0000   0.0000   0.0000   0.0000
     0.0000   0.0000   0.0000   0.0000   0.0000   0.0000   0.0000   0.0000
     0.0000   0.0000   0.0000   0.0000   0.0000   0.0000   0.0000   0.0000
     0.0000   0.0000   0.0000   0.0000   0.0000   0.0000   0.0000   0.0000
     0.0000   0.0000   0.0000   0.0000   0.0000   0.0000   0.0000   0.0000
     0.0000   0.0000   0.0000   0.0000   0.0000   0.0000   0.0000   0.0000
     0.0000   0.0000   0.0000   0.0000   0.0000   0.0000   0.0000   0.0000
     0.0000   0.0000   0.0000   0.0000   0.0000   0.0000   0.0000   0.0000
     0.0000   0.0000   0.0000   0.0000   0.0000   0.0000   0.0000   0.0000
     0.0000   0.0000   0.0000   0.0000   0.0000   0.0000   0.0000   0.0000
     0.0000   0.0000   0.0000   0.0000   0.0000   0.0000   0.0000   0.0000
     0.0000   0.0000   0.0000   0.0000   0.0000   0.0000   0.0000   0.0000
     0.0000   0.0000   0.0000   0.0000   0.0000   0.0000   0.0000   0.0000
     0.0000   0.0000   0.0000   0.0000   0.0000   0.0000   0.0000   0.0000
     0.0000   0.0000   0.0000   0.0000   0.0000   0.0000   0.0000   0.0000
     0.0000   0.0000   0.0000   0.0000   0.0000   0.0000   0.0000   0.0000
[...]
     atom   53 type  2   force =     0.00000212   -0.00000212   -0.00000212
     atom   54 type  2   force =     0.00000608   -0.00000608    0.00000627
     atom   55 type  2   force =     0.00000608    0.00000627   -0.00000608
     atom   56 type  2   force =    -0.00001107   -0.00000418   -0.00000418
     atom   57 type  2   force =     0.00040990    0.00040990    0.00040990
     atom   58 type  2   force =     0.00000418    0.00000418   -0.00001107
     atom   59 type  2   force =     0.00000418   -0.00001107    0.00000418
     atom   60 type  2   force =    -0.00000627    0.00000608    0.00000608
     atom   61 type  2   force =    -0.00001107    0.00000418    0.00000418
     atom   62 type  2   force =     0.00000608   -0.00000627    0.00000608
     atom   63 type  2   force =     0.00000608    0.00000608   -0.00000627
     atom   64 type  2   force =     0.00000212    0.00000212    0.00000212
     The Hubbard contrib.    to forces
     atom    1 type  1   force =     0.00000000    0.00000000    0.00000000
     atom    2 type  2   force =     0.00000000    0.00000000    0.00000000
     atom    3 type  2   force =     0.00000000    0.00000000    0.00000000
     atom    4 type  2   force =     0.00000000    0.00000000    0.00000000
     atom    5 type  2   force =     0.00000000    0.00000000    0.00000000
     atom    6 type  2   force =     0.00000000    0.00000000    0.00000000
     atom    7 type  2   force =     0.00000000    0.00000000    0.00000000
     atom    8 type  2   force =     0.00000000    0.00000000    0.00000000
     atom    9 type  2   force =     0.00000000    0.00000000    0.00000000
     atom   10 type  2   force =     0.00000000    0.00000000    0.00000000
     atom   11 type  2   force =     0.00000000    0.00000000    0.00000000
     atom   12 type  2   force =     0.00000000    0.00000000    0.00000000
     atom   13 type  2   force =     0.00000000    0.00000000    0.00000000
     atom   14 type  2   force =     0.00000000    0.00000000    0.00000000
     atom   15 type  2   force =     0.00000000    0.00000000    0.00000000
     atom   16 type  2   force =     0.00000000    0.00000000    0.00000000
     atom   17 type  2   force =     0.00000000    0.00000000    0.00000000
     atom   18 type  2   force =     0.00000000    0.00000000    0.00000000
     atom   19 type  2   force =     0.00000000    0.00000000    0.00000000
     atom   20 type  2   force =     0.00000000    0.00000000    0.00000000
     atom   21 type  2   force =     0.00000000    0.00000000    0.00000000
     atom   22 type  2   force =     0.00000000    0.00000000    0.00000000
     atom   23 type  2   force =     0.00000000    0.00000000    0.00000000
     atom   24 type  2   force =     0.00000000    0.00000000    0.00000000
     atom   25 type  2   force =     0.00000000    0.00000000    0.00000000
     atom   26 type  2   force =     0.00000000    0.00000000    0.00000000
     atom   27 type  2   force =     0.00000000    0.00000000    0.00000000
     atom   28 type  2   force =     0.00000000    0.00000000    0.00000000
     atom   29 type  2   force =     0.00000000    0.00000000    0.00000000
     atom   30 type  2   force =     0.00000000    0.00000000    0.00000000
     atom   31 type  2   force =     0.00000000    0.00000000    0.00000000
     atom   32 type  2   force =     0.00000000    0.00000000    0.00000000
     atom   33 type  2   force =     0.00000000    0.00000000    0.00000000
     atom   34 type  2   force =     0.00000000    0.00000000    0.00000000
     atom   35 type  2   force =     0.00000000    0.00000000    0.00000000
     atom   36 type  2   force =     0.00000000    0.00000000    0.00000000
     atom   37 type  2   force =     0.00000000    0.00000000    0.00000000
     atom   38 type  2   force =     0.00000000    0.00000000    0.00000000
     atom   39 type  2   force =     0.00000000    0.00000000    0.00000000
     atom   40 type  2   force =     0.00000000    0.00000000    0.00000000
     atom   41 type  2   force =     0.00000000    0.00000000    0.00000000
     atom   42 type  2   force =     0.00000000    0.00000000    0.00000000
     atom   43 type  2   force =     0.00000000    0.00000000    0.00000000
     atom   44 type  2   force =     0.00000000    0.00000000    0.00000000
     atom   45 type  2   force =     0.00000000    0.00000000    0.00000000
     atom   46 type  2   force =     0.00000000    0.00000000    0.00000000
     atom   47 type  2   force =     0.00000000    0.00000000    0.00000000
     atom   48 type  2   force =     0.00000000    0.00000000    0.00000000
     atom   49 type  2   force =     0.00000000    0.00000000    0.00000000
     atom   50 type  2   force =     0.00000000    0.00000000    0.00000000
     atom   51 type  2   force =     0.00000000    0.00000000    0.00000000
     atom   52 type  2   force =     0.00000000    0.00000000    0.00000000
     atom   53 type  2   force =     0.00000000    0.00000000    0.00000000
     atom   54 type  2   force =     0.00000000    0.00000000    0.00000000
     atom   55 type  2   force =     0.00000000    0.00000000    0.00000000
     atom   56 type  2   force =     0.00000000    0.00000000    0.00000000
     atom   57 type  2   force =     0.00000000    0.00000000    0.00000000
     atom   58 type  2   force =     0.00000000    0.00000000    0.00000000
     atom   59 type  2   force =     0.00000000    0.00000000    0.00000000
     atom   60 type  2   force =     0.00000000    0.00000000    0.00000000
     atom   61 type  2   force =     0.00000000    0.00000000    0.00000000
     atom   62 type  2   force =     0.00000000    0.00000000    0.00000000
     atom   63 type  2   force =     0.00000000    0.00000000    0.00000000
     atom   64 type  2   force =     0.00000000    0.00000000    0.00000000
     The SCF correction term to forces
     atom    1 type  1   force =     0.00000000   -0.00000000   -0.00000000
     atom    2 type  2   force =    -0.00000000   -0.00000000    0.00000000
     atom    3 type  2   force =     0.00000000   -0.00000000   -0.00000000
     atom    4 type  2   force =     0.00000000    0.00000000   -0.00000000
     atom    5 type  2   force =     0.00000000   -0.00000000   -0.00000000
     atom    6 type  2   force =     0.00000000   -0.00000000   -0.00000000
     atom    7 type  2   force =     0.00000000   -0.00000000    0.00000000
     atom    8 type  2   force =    -0.00000000   -0.00000000   -0.00000000
     atom    9 type  2   force =     0.00000015   -0.00000006   -0.00000006
     atom   10 type  2   force =    -0.00000015   -0.00000006    0.00000006
     atom   11 type  2   force =    -0.00000015    0.00000006   -0.00000006
     atom   12 type  2   force =     0.00000015    0.00000006    0.00000006
     atom   13 type  2   force =    -0.00000003    0.00000003    0.00000003
     atom   14 type  2   force =     0.00000003    0.00000003   -0.00000003
     atom   15 type  2   force =     0.00000003   -0.00000003    0.00000003
     atom   16 type  2   force =    -0.00000003   -0.00000003   -0.00000003
     atom   17 type  2   force =    -0.00000006    0.00000015   -0.00000006
     atom   18 type  2   force =    -0.00000006   -0.00000015    0.00000006
     atom   19 type  2   force =     0.00000003   -0.00000003    0.00000003
     atom   20 type  2   force =     0.00000003    0.00000003   -0.00000003
     atom   21 type  2   force =     0.00000006   -0.00000015   -0.00000006
     atom   22 type  2   force =     0.00000006    0.00000015    0.00000006
     atom   23 type  2   force =    -0.00000003    0.00000003    0.00000003
     atom   24 type  2   force =    -0.00000003   -0.00000003   -0.00000003
     atom   25 type  2   force =    -0.00000006   -0.00000006    0.00000015
     atom   26 type  2   force =     0.00000003    0.00000003   -0.00000003
     atom   27 type  2   force =    -0.00000006    0.00000006   -0.00000015
     atom   28 type  2   force =     0.00000003   -0.00000003    0.00000003
     atom   29 type  2   force =     0.00000006   -0.00000006   -0.00000015
     atom   30 type  2   force =    -0.00000003    0.00000003    0.00000003
     atom   31 type  2   force =     0.00000006    0.00000006    0.00000015
     atom   32 type  2   force =    -0.00000003   -0.00000003   -0.00000003
     atom   33 type  2   force =    -0.00000015   -0.00000015    0.00000032
     atom   34 type  2   force =    -0.00000047   -0.00000047    0.00000047
     atom   35 type  2   force =    -0.00000010   -0.00000020    0.00000020
     atom   36 type  2   force =    -0.00000015   -0.00000032    0.00000015
     atom   37 type  2   force =    -0.00000020   -0.00000010    0.00000020
     atom   38 type  2   force =    -0.00000032   -0.00000015    0.00000015
     atom   39 type  2   force =    -0.00000009   -0.00000009    0.00000009
     atom   40 type  2   force =    -0.00000020   -0.00000020    0.00000010
     atom   41 type  2   force =    -0.00000015    0.00000032   -0.00000015
     atom   42 type  2   force =    -0.00000010    0.00000020   -0.00000020
     atom   43 type  2   force =    -0.00000047    0.00000047   -0.00000047
     atom   44 type  2   force =    -0.00000015    0.00000015   -0.00000032
     atom   45 type  2   force =    -0.00000020    0.00000020   -0.00000010
     atom   46 type  2   force =    -0.00000009    0.00000009   -0.00000009
     atom   47 type  2   force =    -0.00000032    0.00000015   -0.00000015
     atom   48 type  2   force =    -0.00000020    0.00000010   -0.00000020
     atom   49 type  2   force =     0.00000032   -0.00000015   -0.00000015
     atom   50 type  2   force =     0.00000020   -0.00000010   -0.00000020
     atom   51 type  2   force =     0.00000020   -0.00000020   -0.00000010
     atom   52 type  2   force =     0.00000009   -0.00000009   -0.00000009
     atom   53 type  2   force =     0.00000047   -0.00000047   -0.00000047
     atom   54 type  2   force =     0.00000015   -0.00000015   -0.00000032
     atom   55 type  2   force =     0.00000015   -0.00000032   -0.00000015
     atom   56 type  2   force =     0.00000010   -0.00000020   -0.00000020
     atom   57 type  2   force =     0.00000009    0.00000009    0.00000009
     atom   58 type  2   force =     0.00000020    0.00000020    0.00000010
     atom   59 type  2   force =     0.00000020    0.00000010    0.00000020
     atom   60 type  2   force =     0.00000032    0.00000015    0.00000015
     atom   61 type  2   force =     0.00000010    0.00000020    0.00000020
     atom   62 type  2   force =     0.00000015    0.00000032    0.00000015
     atom   63 type  2   force =     0.00000015    0.00000015    0.00000032
     atom   64 type  2   force =     0.00000047    0.00000047    0.00000047

     Total force =     0.030581     Total SCF correction =     0.000002


     Computing stress (Cartesian axis) and pressure

 Really copied psic H->D
 Really copied psic D->H
 Really copied psic H->D
 Really copied psic D->H
 Really copied psic H->D
 Really copied psic D->H
          total   stress  (Ry/bohr**3)                   (kbar)     P=      -14.03
  -0.00009535   0.00000000   0.00000000          -14.03        0.00        0.00
   0.00000000  -0.00009535   0.00000000            0.00      -14.03        0.00
   0.00000000   0.00000000  -0.00009535            0.00        0.00      -14.03

     kinetic stress (kbar)   2343.10      0.00      0.00
                                0.00   2343.10      0.00
                                0.00      0.00   2343.10

     local   stress (kbar)   -721.17      0.00      0.00
                                0.00   -721.17      0.00
                                0.00      0.00   -721.17

     nonloc. stress (kbar)   2043.43      0.00      0.00
                                0.00   2043.43      0.00
                                0.00      0.00   2043.43

     hartree stress (kbar)    858.59     -0.00      0.00
                               -0.00    858.59      0.00
                                0.00      0.00    858.59

     exc-cor stress (kbar)   1363.21      0.00      0.00
                                0.00   1363.21      0.00
                                0.00      0.00   1363.21

     corecor stress (kbar)  -2536.57     -0.00      0.00
                               -0.00  -2536.57      0.00
                                0.00      0.00  -2536.57

     ewald   stress (kbar)  -3364.62      0.00      0.00
                                0.00  -3364.62      0.00
                                0.00      0.00  -3364.62

     hubbard stress (kbar)      0.00      0.00      0.00
                                0.00      0.00      0.00
                                0.00      0.00      0.00

     DFT-D   stress (kbar)      0.00      0.00      0.00
                                0.00      0.00      0.00
                                0.00      0.00      0.00

     XDM     stress (kbar)      0.00      0.00      0.00
                                0.00      0.00      0.00
                                0.00      0.00      0.00

     dft-nl  stress (kbar)      0.00      0.00      0.00
                                0.00      0.00      0.00
                                0.00      0.00      0.00

     TS-vdW  stress (kbar)      0.00      0.00      0.00
                                0.00      0.00      0.00
                                0.00      0.00      0.00


 
     init_run     :     10.84s CPU      8.97s WALL (       1 calls)
     electrons    :    101.17s CPU     76.66s WALL (       1 calls)
     forces       :      5.35s CPU      1.85s WALL (       1 calls)
     stress       :    232.86s CPU     37.23s WALL (       1 calls)

     Called by init_run:
     wfcinit      :      2.01s CPU      2.94s WALL (       1 calls)
                                        2.94s GPU  (       1 calls)
     wfcinit:atom :      0.13s CPU      0.16s WALL (       1 calls)
                                        0.16s GPU  (       1 calls)
     wfcinit:wfcr :      1.17s CPU      1.77s WALL (       1 calls)
                                        1.77s GPU  (       1 calls)
     potinit      :      2.07s CPU      0.64s WALL (       1 calls)
     hinit0       :      3.15s CPU      1.13s WALL (       1 calls)

     Called by electrons:
     c_bands      :     62.83s CPU     53.40s WALL (      14 calls)
     sum_band     :     12.20s CPU     11.69s WALL (      14 calls)
                                       11.69s GPU  (      14 calls)
     v_of_rho     :     12.46s CPU      4.49s WALL (      14 calls)
     v_h          :      4.51s CPU      1.95s WALL (      14 calls)
     v_xc         :      9.11s CPU      2.99s WALL (      16 calls)
     newd         :      2.46s CPU      2.70s WALL (      14 calls)
                                        2.70s GPU  (      14 calls)
     mix_rho      :      8.11s CPU      2.90s WALL (      14 calls)

     Called by c_bands:
     init_us_2    :      0.14s CPU      0.26s WALL (      29 calls)
                                        0.26s GPU  (      29 calls)
     cegterg      :     56.61s CPU     46.85s WALL (      14 calls)

     Called by sum_band:
     sum_band:wei :      0.02s CPU      0.04s WALL (      14 calls)
                                        0.04s GPU  (      14 calls)
     sum_band:loo :      3.44s CPU      4.64s WALL (      14 calls)
                                        4.63s GPU  (      14 calls)
     sum_band:buf :      0.00s CPU      0.00s WALL (      14 calls)
                                        0.00s GPU  (      14 calls)
     sum_band:ini :      0.10s CPU      0.12s WALL (      14 calls)
                                        0.12s GPU  (      14 calls)
     sum_band:cal :      0.00s CPU      1.37s WALL (      14 calls)
                                        1.36s GPU  (      14 calls)
     sum_band:bec :      0.04s CPU      0.06s WALL (      14 calls)
                                        0.06s GPU  (      14 calls)
     addusdens    :      1.85s CPU      2.28s WALL (      14 calls)
                                        2.28s GPU  (      14 calls)
     addusd:skk   :      0.00s CPU      0.79s WALL (      28 calls)
                                        0.08s GPU  (      28 calls)

     Called by *egterg:
     cdiaghg      :     28.21s CPU      9.44s WALL (      98 calls)
                                        9.42s GPU  (      98 calls)
     cegterg:over :      3.55s CPU      4.76s WALL (      85 calls)
     cegterg:upda :      1.91s CPU      2.46s WALL (      85 calls)
     cegterg:last :      4.53s CPU      6.01s WALL (      28 calls)
     h_psi        :     15.13s CPU     19.83s WALL (     100 calls)
                                       19.72s GPU  (     100 calls)
     s_psi        :      0.21s CPU      3.24s WALL (     100 calls)
                                        3.16s GPU  (     100 calls)
     g_psi        :      0.00s CPU      0.09s WALL (      85 calls)
                                        0.09s GPU  (      85 calls)

     Called by h_psi:
     h_psi:calbec :      0.00s CPU      3.35s WALL (     100 calls)
                                        3.35s GPU  (     100 calls)
     vloc_psi     :     10.22s CPU     13.33s WALL (     100 calls)
                                       13.16s GPU  (     100 calls)
     add_vuspsi   :      0.03s CPU      3.04s WALL (     100 calls)
                                        3.04s GPU  (     100 calls)

     General routines
     calbec       :      0.00s CPU      0.00s WALL (     119 calls)
     fft          :     11.08s CPU      1.06s WALL (      91 calls)
                                        0.04s GPU  (      21 calls)
     ffts         :      0.05s CPU      0.03s WALL (      28 calls)
     fftw         :      0.05s CPU     16.17s WALL (    4158 calls)
                                       12.17s GPU  (    4158 calls)
     interpolate  :      3.05s CPU      0.94s WALL (      14 calls)
 
     Parallel routines
 
     PWSCF        :   5m50.43s CPU   2m 5.32s WALL

 
   This run was terminated on:  17: 3:32   6Nov2021            

=------------------------------------------------------------------------------=
   JOB DONE.
=------------------------------------------------------------------------------=
Warning: ieee_divide_by_zero is signaling
Warning: ieee_inexact is signaling
FORTRAN STOP
Warning: ieee_divide_by_zero is signaling
Warning: ieee_inexact is signaling
FORTRAN STOP
Warning: ieee_divide_by_zero is signaling
Warning: ieee_underflow is signaling
Warning: ieee_inexact is signaling
FORTRAN STOP
Warning: ieee_divide_by_zero is signaling
Warning: ieee_inexact is signaling
FORTRAN STOP


Batch Job Summary Report (version 21.01.1) for Job "test_scf" (34794493) on daint

Job information (1/3)
-----------------------------------------------------------------------------------------------------
             Submit            Eligible               Start                 End    Elapsed Time limit
------------------- ------------------- ------------------- ------------------- ---------- ----------
2021-11-06T17:01:17 2021-11-06T17:01:17 2021-11-06T17:01:18 2021-11-06T17:03:33   00:02:15   00:40:00
-----------------------------------------------------------------------------------------------------

Job information (2/3)
-------------------------------------------------------------
    Username      Account    Partition   NNodes        Energy
------------ ------------ ------------ -------- -------------
      antonk      csstaff       normal        4    102.284 kJ

Job information (3/3) - GPU utilization data
----------------------------------------------------
   Node name       Usage      Max mem Execution time
------------ ----------- ------------ --------------
    nid02202        55 %    12311 MiB       00:02:06
    nid02200        55 %    12461 MiB       00:02:06
    nid02201        53 %    12097 MiB       00:02:06
    nid02199        54 %    12201 MiB       00:02:06

