SIRIUS 7.2.8, git hash: 3c35c5f316fe88231ea41a768881e635ce138a3e

     Program PWSCF v.6.8 starts on  6Nov2021 at 12:57:38 

     This program is part of the open-source Quantum ESPRESSO suite
     for quantum simulation of materials; please cite
         "P. Giannozzi et al., J. Phys.:Condens. Matter 21 395502 (2009);
         "P. Giannozzi et al., J. Phys.:Condens. Matter 29 465901 (2017);
         "P. Giannozzi et al., J. Chem. Phys. 152 154105 (2020);
          URL http://www.quantum-espresso.org", 
     in publications or presentations arising from this work. More details at
     http://www.quantum-espresso.org/quote

     Parallel version (MPI & OpenMP), running on      48 processor cores
     Number of MPI processes:                 4
     Threads/MPI process:                    12

     MPI processes distributed on     4 nodes
     K-points division:     npool     =       4
     59375 MiB available memory on the printing compute node when the environment starts

     Reading input from pw.in
     Message from routine read_cards :
     DEPRECATED: no units specified in CELL_PARAMETERS card

     Current dimensions of program PWSCF are:
     Max number of different atomic species (ntypx) = 10
     Max number of k-points (npk) =  40000
     Max angular momentum in pseudopotentials (lmaxx) =  4
     Message from routine cell_base_init:
     DEPRECATED: use true lattice parameter, not A to a.u. conversion factor
     Message from routine setup:
     using ibrav=0 with symmetry is DISCOURAGED, use correct ibrav instead

     Subspace diagonalization in iterative solution of the eigenvalue problem:
     a serial algorithm will be used


     G-vector sticks info
     --------------------
     sticks:   dense  smooth     PW     G-vecs:    dense   smooth      PW
     Sum       26821    6721   1789              3303989   413381   57747

     Using Slab Decomposition



     bravais-lattice index     =            0
     lattice parameter (alat)  =       1.0000  a.u.
     unit-cell volume          =    8646.7719 (a.u.)^3
     number of atoms/cell      =           64
     number of atomic types    =            2
     number of electrons       =       266.00
     number of Kohn-Sham states=          800
     kinetic-energy cutoff     =      50.0000  Ry
     charge density cutoff     =     800.0000  Ry
     scf convergence threshold =      1.0E-11
     mixing beta               =       0.7000
     number of iterations used =            8  plain     mixing
     Exchange-correlation= SLA  PZ   NOGX NOGC
                           (   1   1   0   0   0   0   0)

     celldm(1)=   1.000000  celldm(2)=   0.000000  celldm(3)=   0.000000
     celldm(4)=   0.000000  celldm(5)=   0.000000  celldm(6)=   0.000000

     crystal axes: (cart. coord. in units of alat)
               a(1) = (  20.525071   0.000000   0.000000 )  
               a(2) = (   0.000000  20.525071   0.000000 )  
               a(3) = (   0.000000   0.000000  20.525071 )  

     reciprocal axes: (cart. coord. in units 2 pi/alat)
               b(1) = (  0.048721  0.000000  0.000000 )  
               b(2) = (  0.000000  0.048721  0.000000 )  
               b(3) = (  0.000000  0.000000  0.048721 )  


     PseudoPot. # 1 for Ge read from file:
     ./ge_lda_v1.4.uspp.F.UPF
     MD5 check sum: bf9d52b59cc8a669818bb2b52e0c2ba0
     Pseudo is Ultrasoft + core correction, Zval = 14.0
     Generated by new atomic code, or converted to UPF format
     Using radial grid of  873 points,  6 beta functions with: 
                l(1) =   0
                l(2) =   0
                l(3) =   1
                l(4) =   1
                l(5) =   2
                l(6) =   2
     Q(r) pseudized with  8 coefficients,  rinner =    1.400   1.400   1.400
                                                       1.400   1.400

     PseudoPot. # 2 for Si read from file:
     ./si_lda_v1.uspp.F.UPF
     MD5 check sum: b5ade7b37ee992b02096e360e546dc2d
     Pseudo is Ultrasoft + core correction, Zval =  4.0
     Generated by new atomic code, or converted to UPF format
     Using radial grid of  899 points,  6 beta functions with: 
                l(1) =   0
                l(2) =   0
                l(3) =   1
                l(4) =   1
                l(5) =   2
                l(6) =   2
     Q(r) pseudized with  8 coefficients,  rinner =    0.900   0.900   0.900
                                                       0.900   0.900

     atomic species   valence    mass     pseudopotential
        Ge            14.00    72.61000     Ge( 1.00)
        Si             4.00    28.08550     Si( 1.00)

     24 Sym. Ops. (no inversion) found


                                    s                        frac. trans.

      isym =  1     identity                                     

 cryst.   s( 1) = (     1          0          0      )
                  (     0          1          0      )
                  (     0          0          1      )

 cart.    s( 1) = (  1.0000000  0.0000000  0.0000000 )
                  (  0.0000000  1.0000000  0.0000000 )
                  (  0.0000000  0.0000000  1.0000000 )


      isym =  2     180 deg rotation - cart. axis [0,0,1]        

 cryst.   s( 2) = (    -1          0          0      )
                  (     0         -1          0      )
                  (     0          0          1      )

 cart.    s( 2) = ( -1.0000000  0.0000000  0.0000000 )
                  (  0.0000000 -1.0000000  0.0000000 )
                  (  0.0000000  0.0000000  1.0000000 )


      isym =  3     180 deg rotation - cart. axis [0,1,0]        

 cryst.   s( 3) = (    -1          0          0      )
                  (     0          1          0      )
                  (     0          0         -1      )

 cart.    s( 3) = ( -1.0000000  0.0000000  0.0000000 )
                  (  0.0000000  1.0000000  0.0000000 )
                  (  0.0000000  0.0000000 -1.0000000 )


      isym =  4     180 deg rotation - cart. axis [1,0,0]        

 cryst.   s( 4) = (     1          0          0      )
                  (     0         -1          0      )
                  (     0          0         -1      )

 cart.    s( 4) = (  1.0000000  0.0000000  0.0000000 )
                  (  0.0000000 -1.0000000  0.0000000 )
                  (  0.0000000  0.0000000 -1.0000000 )


      isym =  5     120 deg rotation - cart. axis [-1,-1,-1]     

 cryst.   s( 5) = (     0          0          1      )
                  (     1          0          0      )
                  (     0          1          0      )

 cart.    s( 5) = (  0.0000000  1.0000000  0.0000000 )
                  (  0.0000000  0.0000000  1.0000000 )
                  (  1.0000000  0.0000000  0.0000000 )


      isym =  6     120 deg rotation - cart. axis [-1,1,1]       

 cryst.   s( 6) = (     0          0         -1      )
                  (    -1          0          0      )
                  (     0          1          0      )

 cart.    s( 6) = (  0.0000000 -1.0000000  0.0000000 )
                  (  0.0000000  0.0000000  1.0000000 )
                  ( -1.0000000  0.0000000  0.0000000 )


      isym =  7     120 deg rotation - cart. axis [1,1,-1]       

 cryst.   s( 7) = (     0          0         -1      )
                  (     1          0          0      )
                  (     0         -1          0      )

 cart.    s( 7) = (  0.0000000  1.0000000  0.0000000 )
                  (  0.0000000  0.0000000 -1.0000000 )
                  ( -1.0000000  0.0000000  0.0000000 )


      isym =  8     120 deg rotation - cart. axis [1,-1,1]       

 cryst.   s( 8) = (     0          0          1      )
                  (    -1          0          0      )
                  (     0         -1          0      )

 cart.    s( 8) = (  0.0000000 -1.0000000  0.0000000 )
                  (  0.0000000  0.0000000 -1.0000000 )
                  (  1.0000000  0.0000000  0.0000000 )


      isym =  9     120 deg rotation - cart. axis [1,1,1]        

 cryst.   s( 9) = (     0          1          0      )
                  (     0          0          1      )
                  (     1          0          0      )

 cart.    s( 9) = (  0.0000000  0.0000000  1.0000000 )
                  (  1.0000000  0.0000000  0.0000000 )
                  (  0.0000000  1.0000000  0.0000000 )


      isym = 10     120 deg rotation - cart. axis [-1,1,-1]      

 cryst.   s(10) = (     0         -1          0      )
                  (     0          0         -1      )
                  (     1          0          0      )

 cart.    s(10) = (  0.0000000  0.0000000  1.0000000 )
                  ( -1.0000000  0.0000000  0.0000000 )
                  (  0.0000000 -1.0000000  0.0000000 )


      isym = 11     120 deg rotation - cart. axis [1,-1,-1]      

 cryst.   s(11) = (     0         -1          0      )
                  (     0          0          1      )
                  (    -1          0          0      )

 cart.    s(11) = (  0.0000000  0.0000000 -1.0000000 )
                  ( -1.0000000  0.0000000  0.0000000 )
                  (  0.0000000  1.0000000  0.0000000 )


      isym = 12     120 deg rotation - cart. axis [-1,-1,1]      

 cryst.   s(12) = (     0          1          0      )
                  (     0          0         -1      )
                  (    -1          0          0      )

 cart.    s(12) = (  0.0000000  0.0000000 -1.0000000 )
                  (  1.0000000  0.0000000  0.0000000 )
                  (  0.0000000 -1.0000000  0.0000000 )


      isym = 13     inv. 180 deg rotation - cart. axis [1,1,0]   

 cryst.   s(13) = (     0         -1          0      )
                  (    -1          0          0      )
                  (     0          0          1      )

 cart.    s(13) = (  0.0000000 -1.0000000  0.0000000 )
                  ( -1.0000000  0.0000000  0.0000000 )
                  (  0.0000000  0.0000000  1.0000000 )


      isym = 14     inv. 180 deg rotation - cart. axis [1,-1,0]  

 cryst.   s(14) = (     0          1          0      )
                  (     1          0          0      )
                  (     0          0          1      )

 cart.    s(14) = (  0.0000000  1.0000000  0.0000000 )
                  (  1.0000000  0.0000000  0.0000000 )
                  (  0.0000000  0.0000000  1.0000000 )


      isym = 15     inv.  90 deg rotation - cart. axis [0,0,-1]  

 cryst.   s(15) = (     0          1          0      )
                  (    -1          0          0      )
                  (     0          0         -1      )

 cart.    s(15) = (  0.0000000 -1.0000000  0.0000000 )
                  (  1.0000000  0.0000000  0.0000000 )
                  (  0.0000000  0.0000000 -1.0000000 )


      isym = 16     inv.  90 deg rotation - cart. axis [0,0,1]   

 cryst.   s(16) = (     0         -1          0      )
                  (     1          0          0      )
                  (     0          0         -1      )

 cart.    s(16) = (  0.0000000  1.0000000  0.0000000 )
                  ( -1.0000000  0.0000000  0.0000000 )
                  (  0.0000000  0.0000000 -1.0000000 )


      isym = 17     inv. 180 deg rotation - cart. axis [1,0,1]   

 cryst.   s(17) = (     0          0         -1      )
                  (     0          1          0      )
                  (    -1          0          0      )

 cart.    s(17) = (  0.0000000  0.0000000 -1.0000000 )
                  (  0.0000000  1.0000000  0.0000000 )
                  ( -1.0000000  0.0000000  0.0000000 )


      isym = 18     inv. 180 deg rotation - cart. axis [-1,0,1]  

 cryst.   s(18) = (     0          0          1      )
                  (     0          1          0      )
                  (     1          0          0      )

 cart.    s(18) = (  0.0000000  0.0000000  1.0000000 )
                  (  0.0000000  1.0000000  0.0000000 )
                  (  1.0000000  0.0000000  0.0000000 )


      isym = 19     inv.  90 deg rotation - cart. axis [0,1,0]   

 cryst.   s(19) = (     0          0          1      )
                  (     0         -1          0      )
                  (    -1          0          0      )

 cart.    s(19) = (  0.0000000  0.0000000 -1.0000000 )
                  (  0.0000000 -1.0000000  0.0000000 )
                  (  1.0000000  0.0000000  0.0000000 )


      isym = 20     inv.  90 deg rotation - cart. axis [0,-1,0]  

 cryst.   s(20) = (     0          0         -1      )
                  (     0         -1          0      )
                  (     1          0          0      )

 cart.    s(20) = (  0.0000000  0.0000000  1.0000000 )
                  (  0.0000000 -1.0000000  0.0000000 )
                  ( -1.0000000  0.0000000  0.0000000 )


      isym = 21     inv. 180 deg rotation - cart. axis [0,1,1]   

 cryst.   s(21) = (     1          0          0      )
                  (     0          0         -1      )
                  (     0         -1          0      )

 cart.    s(21) = (  1.0000000  0.0000000  0.0000000 )
                  (  0.0000000  0.0000000 -1.0000000 )
                  (  0.0000000 -1.0000000  0.0000000 )


      isym = 22     inv. 180 deg rotation - cart. axis [0,1,-1]  

 cryst.   s(22) = (     1          0          0      )
                  (     0          0          1      )
                  (     0          1          0      )

 cart.    s(22) = (  1.0000000  0.0000000  0.0000000 )
                  (  0.0000000  0.0000000  1.0000000 )
                  (  0.0000000  1.0000000  0.0000000 )


      isym = 23     inv.  90 deg rotation - cart. axis [-1,0,0]  

 cryst.   s(23) = (    -1          0          0      )
                  (     0          0          1      )
                  (     0         -1          0      )

 cart.    s(23) = ( -1.0000000  0.0000000  0.0000000 )
                  (  0.0000000  0.0000000 -1.0000000 )
                  (  0.0000000  1.0000000  0.0000000 )


      isym = 24     inv.  90 deg rotation - cart. axis [1,0,0]   

 cryst.   s(24) = (    -1          0          0      )
                  (     0          0         -1      )
                  (     0          1          0      )

 cart.    s(24) = ( -1.0000000  0.0000000  0.0000000 )
                  (  0.0000000  0.0000000  1.0000000 )
                  (  0.0000000 -1.0000000  0.0000000 )


   Cartesian axes

     site n.     atom                  positions (alat units)
         1           Ge  tau(   1) = (   0.0000000   0.0000000   0.0000000  )
         2           Si  tau(   2) = (   0.0000000   0.0000000  10.2625355  )
         3           Si  tau(   3) = (   0.0000000  10.2625355   0.0000000  )
         4           Si  tau(   4) = (   0.0000000  10.2625355  10.2625355  )
         5           Si  tau(   5) = (  10.2625355   0.0000000   0.0000000  )
         6           Si  tau(   6) = (  10.2625355   0.0000000  10.2625355  )
         7           Si  tau(   7) = (  10.2625355  10.2625355   0.0000000  )
         8           Si  tau(   8) = (  10.2625355  10.2625355  10.2625355  )
         9           Si  tau(   9) = (   0.0000000   5.1312678   5.1312678  )
        10           Si  tau(  10) = (   0.0000000   5.1312678  15.3938033  )
        11           Si  tau(  11) = (   0.0000000  15.3938033   5.1312678  )
        12           Si  tau(  12) = (   0.0000000  15.3938033  15.3938033  )
        13           Si  tau(  13) = (  10.2625355   5.1312678   5.1312678  )
        14           Si  tau(  14) = (  10.2625355   5.1312678  15.3938033  )
        15           Si  tau(  15) = (  10.2625355  15.3938033   5.1312678  )
        16           Si  tau(  16) = (  10.2625355  15.3938033  15.3938033  )
        17           Si  tau(  17) = (   5.1312678   0.0000000   5.1312678  )
        18           Si  tau(  18) = (   5.1312678   0.0000000  15.3938033  )
        19           Si  tau(  19) = (   5.1312678  10.2625355   5.1312678  )
        20           Si  tau(  20) = (   5.1312678  10.2625355  15.3938033  )
        21           Si  tau(  21) = (  15.3938033   0.0000000   5.1312678  )
        22           Si  tau(  22) = (  15.3938033   0.0000000  15.3938033  )
        23           Si  tau(  23) = (  15.3938033  10.2625355   5.1312678  )
        24           Si  tau(  24) = (  15.3938033  10.2625355  15.3938033  )
        25           Si  tau(  25) = (   5.1312678   5.1312678   0.0000000  )
        26           Si  tau(  26) = (   5.1312678   5.1312678  10.2625355  )
        27           Si  tau(  27) = (   5.1312678  15.3938033   0.0000000  )
        28           Si  tau(  28) = (   5.1312678  15.3938033  10.2625355  )
        29           Si  tau(  29) = (  15.3938033   5.1312678   0.0000000  )
        30           Si  tau(  30) = (  15.3938033   5.1312678  10.2625355  )
        31           Si  tau(  31) = (  15.3938033  15.3938033   0.0000000  )
        32           Si  tau(  32) = (  15.3938033  15.3938033  10.2625355  )
        33           Si  tau(  33) = (   7.6969016   7.6969016   2.5656339  )
        34           Si  tau(  34) = (   7.6969016   7.6969016  12.8281694  )
        35           Si  tau(  35) = (   7.6969016  17.9594371   2.5656339  )
        36           Si  tau(  36) = (   7.6969016  17.9594371  12.8281694  )
        37           Si  tau(  37) = (  17.9594371   7.6969016   2.5656339  )
        38           Si  tau(  38) = (  17.9594371   7.6969016  12.8281694  )
        39           Si  tau(  39) = (  17.9594371  17.9594371   2.5656339  )
        40           Si  tau(  40) = (  17.9594371  17.9594371  12.8281694  )
        41           Si  tau(  41) = (   7.6969016   2.5656339   7.6969016  )
        42           Si  tau(  42) = (   7.6969016   2.5656339  17.9594371  )
        43           Si  tau(  43) = (   7.6969016  12.8281694   7.6969016  )
        44           Si  tau(  44) = (   7.6969016  12.8281694  17.9594371  )
        45           Si  tau(  45) = (  17.9594371   2.5656339   7.6969016  )
        46           Si  tau(  46) = (  17.9594371   2.5656339  17.9594371  )
        47           Si  tau(  47) = (  17.9594371  12.8281694   7.6969016  )
        48           Si  tau(  48) = (  17.9594371  12.8281694  17.9594371  )
        49           Si  tau(  49) = (   2.5656339   7.6969016   7.6969016  )
        50           Si  tau(  50) = (   2.5656339   7.6969016  17.9594371  )
        51           Si  tau(  51) = (   2.5656339  17.9594371   7.6969016  )
        52           Si  tau(  52) = (   2.5656339  17.9594371  17.9594371  )
        53           Si  tau(  53) = (  12.8281694   7.6969016   7.6969016  )
        54           Si  tau(  54) = (  12.8281694   7.6969016  17.9594371  )
        55           Si  tau(  55) = (  12.8281694  17.9594371   7.6969016  )
        56           Si  tau(  56) = (  12.8281694  17.9594371  17.9594371  )
        57           Si  tau(  57) = (   2.5656339   2.5656339   2.5656339  )
        58           Si  tau(  58) = (   2.5656339   2.5656339  12.8281694  )
        59           Si  tau(  59) = (   2.5656339  12.8281694   2.5656339  )
        60           Si  tau(  60) = (   2.5656339  12.8281694  12.8281694  )
        61           Si  tau(  61) = (  12.8281694   2.5656339   2.5656339  )
        62           Si  tau(  62) = (  12.8281694   2.5656339  12.8281694  )
        63           Si  tau(  63) = (  12.8281694  12.8281694   2.5656339  )
        64           Si  tau(  64) = (  12.8281694  12.8281694  12.8281694  )

   Crystallographic axes

     site n.     atom                  positions (cryst. coord.)
         1           Ge  tau(   1) = (  0.0000000  0.0000000  0.0000000  )
         2           Si  tau(   2) = (  0.0000000  0.0000000  0.5000000  )
         3           Si  tau(   3) = (  0.0000000  0.5000000  0.0000000  )
         4           Si  tau(   4) = (  0.0000000  0.5000000  0.5000000  )
         5           Si  tau(   5) = (  0.5000000  0.0000000  0.0000000  )
         6           Si  tau(   6) = (  0.5000000  0.0000000  0.5000000  )
         7           Si  tau(   7) = (  0.5000000  0.5000000  0.0000000  )
         8           Si  tau(   8) = (  0.5000000  0.5000000  0.5000000  )
         9           Si  tau(   9) = (  0.0000000  0.2500000  0.2500000  )
        10           Si  tau(  10) = (  0.0000000  0.2500000  0.7500000  )
        11           Si  tau(  11) = (  0.0000000  0.7500000  0.2500000  )
        12           Si  tau(  12) = (  0.0000000  0.7500000  0.7500000  )
        13           Si  tau(  13) = (  0.5000000  0.2500000  0.2500000  )
        14           Si  tau(  14) = (  0.5000000  0.2500000  0.7500000  )
        15           Si  tau(  15) = (  0.5000000  0.7500000  0.2500000  )
        16           Si  tau(  16) = (  0.5000000  0.7500000  0.7500000  )
        17           Si  tau(  17) = (  0.2500000  0.0000000  0.2500000  )
        18           Si  tau(  18) = (  0.2500000  0.0000000  0.7500000  )
        19           Si  tau(  19) = (  0.2500000  0.5000000  0.2500000  )
        20           Si  tau(  20) = (  0.2500000  0.5000000  0.7500000  )
        21           Si  tau(  21) = (  0.7500000  0.0000000  0.2500000  )
        22           Si  tau(  22) = (  0.7500000  0.0000000  0.7500000  )
        23           Si  tau(  23) = (  0.7500000  0.5000000  0.2500000  )
        24           Si  tau(  24) = (  0.7500000  0.5000000  0.7500000  )
        25           Si  tau(  25) = (  0.2500000  0.2500000  0.0000000  )
        26           Si  tau(  26) = (  0.2500000  0.2500000  0.5000000  )
        27           Si  tau(  27) = (  0.2500000  0.7500000  0.0000000  )
        28           Si  tau(  28) = (  0.2500000  0.7500000  0.5000000  )
        29           Si  tau(  29) = (  0.7500000  0.2500000  0.0000000  )
        30           Si  tau(  30) = (  0.7500000  0.2500000  0.5000000  )
        31           Si  tau(  31) = (  0.7500000  0.7500000  0.0000000  )
        32           Si  tau(  32) = (  0.7500000  0.7500000  0.5000000  )
        33           Si  tau(  33) = (  0.3750000  0.3750000  0.1250000  )
        34           Si  tau(  34) = (  0.3750000  0.3750000  0.6250000  )
        35           Si  tau(  35) = (  0.3750000  0.8750000  0.1250000  )
        36           Si  tau(  36) = (  0.3750000  0.8750000  0.6250000  )
        37           Si  tau(  37) = (  0.8750000  0.3750000  0.1250000  )
        38           Si  tau(  38) = (  0.8750000  0.3750000  0.6250000  )
        39           Si  tau(  39) = (  0.8750000  0.8750000  0.1250000  )
        40           Si  tau(  40) = (  0.8750000  0.8750000  0.6250000  )
        41           Si  tau(  41) = (  0.3750000  0.1250000  0.3750000  )
        42           Si  tau(  42) = (  0.3750000  0.1250000  0.8750000  )
        43           Si  tau(  43) = (  0.3750000  0.6250000  0.3750000  )
        44           Si  tau(  44) = (  0.3750000  0.6250000  0.8750000  )
        45           Si  tau(  45) = (  0.8750000  0.1250000  0.3750000  )
        46           Si  tau(  46) = (  0.8750000  0.1250000  0.8750000  )
        47           Si  tau(  47) = (  0.8750000  0.6250000  0.3750000  )
        48           Si  tau(  48) = (  0.8750000  0.6250000  0.8750000  )
        49           Si  tau(  49) = (  0.1250000  0.3750000  0.3750000  )
        50           Si  tau(  50) = (  0.1250000  0.3750000  0.8750000  )
        51           Si  tau(  51) = (  0.1250000  0.8750000  0.3750000  )
        52           Si  tau(  52) = (  0.1250000  0.8750000  0.8750000  )
        53           Si  tau(  53) = (  0.6250000  0.3750000  0.3750000  )
        54           Si  tau(  54) = (  0.6250000  0.3750000  0.8750000  )
        55           Si  tau(  55) = (  0.6250000  0.8750000  0.3750000  )
        56           Si  tau(  56) = (  0.6250000  0.8750000  0.8750000  )
        57           Si  tau(  57) = (  0.1250000  0.1250000  0.1250000  )
        58           Si  tau(  58) = (  0.1250000  0.1250000  0.6250000  )
        59           Si  tau(  59) = (  0.1250000  0.6250000  0.1250000  )
        60           Si  tau(  60) = (  0.1250000  0.6250000  0.6250000  )
        61           Si  tau(  61) = (  0.6250000  0.1250000  0.1250000  )
        62           Si  tau(  62) = (  0.6250000  0.1250000  0.6250000  )
        63           Si  tau(  63) = (  0.6250000  0.6250000  0.1250000  )
        64           Si  tau(  64) = (  0.6250000  0.6250000  0.6250000  )

     number of k points=     4  Gaussian smearing, width (Ry)=  0.0100
                       cart. coord. in units 2pi/alat
        k(    1) = (   0.0000000   0.0000000   0.0000000), wk =   0.2500000
        k(    2) = (   0.0000000   0.0000000  -0.0243605), wk =   0.7500000
        k(    3) = (   0.0000000  -0.0243605  -0.0243605), wk =   0.7500000
        k(    4) = (  -0.0243605  -0.0243605  -0.0243605), wk =   0.2500000

                       cryst. coord.
        k(    1) = (   0.0000000   0.0000000   0.0000000), wk =   0.2500000
        k(    2) = (   0.0000000   0.0000000  -0.5000000), wk =   0.7500000
        k(    3) = (   0.0000000  -0.5000000  -0.5000000), wk =   0.7500000
        k(    4) = (  -0.5000000  -0.5000000  -0.5000000), wk =   0.2500000

     Dense  grid:  3303989 G-vectors     FFT dimensions: ( 192, 192, 192)

     Smooth grid:   413381 G-vectors     FFT dimensions: (  96,  96,  96)

     Dynamical RAM for                 wfc:     630.19 MB

     Dynamical RAM for     wfc (w. buffer):     630.19 MB

     Dynamical RAM for           str. fact:     100.83 MB

     Dynamical RAM for           local pot:       0.00 MB

     Dynamical RAM for          nlocal pot:     907.47 MB

     Dynamical RAM for                qrad:       4.54 MB

     Dynamical RAM for          rho,v,vnew:     313.24 MB

     Dynamical RAM for               rhoin:     104.41 MB

     Dynamical RAM for            rho*nmix:     806.64 MB

     Dynamical RAM for           G-vectors:     192.21 MB

     Dynamical RAM for          h,s,v(r/c):     117.19 MB

     Dynamical RAM for          <psi|beta>:      14.06 MB

     Dynamical RAM for                 psi:    1260.38 MB

     Dynamical RAM for                hpsi:    1260.38 MB

     Dynamical RAM for                spsi:    1260.38 MB

     Dynamical RAM for      wfcinit/wfcrot:    1275.03 MB

     Dynamical RAM for           addusdens:    3176.14 MB

     Dynamical RAM for          addusforce:    4726.64 MB

     Dynamical RAM for         addusstress:    2552.25 MB

     Estimated static dynamical RAM per process >       2.61 GB

     Estimated max dynamical RAM per process >       8.02 GB

     Estimated total dynamical RAM >      29.70 GB

     Initial potential from superposition of free atoms

     starting charge  265.96130, renormalised to  266.00000

=== Warning at line 114 of file /users/antonk/apps/GNU/SIRIUS/src/context/simulation_parameters.cpp ===
The following configuration parameters were not recognized and ignored: std_evp_solver gen_evp_solver 


=== Warning at line 114 of file /users/antonk/apps/GNU/SIRIUS/src/context/simulation_parameters.cpp ===
The following configuration parameters were not recognized and ignored: std_evp_solver gen_evp_solver 


=== Warning at line 114 of file /users/antonk/apps/GNU/SIRIUS/src/context/simulation_parameters.cpp ===
The following configuration parameters were not recognized and ignored: std_evp_solver gen_evp_solver 


=== Warning at line 114 of file /users/antonk/apps/GNU/SIRIUS/src/context/simulation_parameters.cpp ===
The following configuration parameters were not recognized and ignored: std_evp_solver gen_evp_solver 

 
 ==========================================
 * initializing SIRIUS simulation context *
 ==========================================

SIRIUS version : 7.2.8
git hash       : 3c35c5f316fe88231ea41a768881e635ce138a3e
git branch     : heads/enhancement/cleanup-api
build time     : 2021-11-06 11:41:53
start time     : Sat,  6 Nov 2021 12:57:43

number of MPI ranks           : 4
MPI grid                      : 1 1
maximum number of OMP threads : 12
number of MPI ranks per node  : 1
page size (Kb)                : 4
number of pages               : 16460583
available memory (GB)         : 62

FFT context for density and potential
=====================================
  comm size                             : 4
  plane wave cutoff                     : 28.284271
  grid size                             : 192 192 192   total : 7077888
  grid limits                           : -95 96   -95 96   -95 96
  number of G-vectors within the cutoff : 1651995
  local number of G-vectors             : 413003
  number of G-shells                    : 7117

FFT context for coarse grid
=====================================
  comm size                             : 1
  plane wave cutoff                     : 14.142136
  grid size                             : 96 96 96   total : 884736
  grid limits                           : -47 48   -47 48   -47 48
  number of G-vectors within the cutoff : 206691
  local number of G-vectors             : 51675
  number of G-shells                    : 1782

number of local G-vector blocks: 1

Unit cell
--------------------------------------------------------------------------------
lattice vectors
  a1 :      20.5250710000       0.0000000000       0.0000000000 
  a2 :       0.0000000000      20.5250710000       0.0000000000 
  a3 :       0.0000000000       0.0000000000      20.5250710000 
reciprocal lattice vectors
  b1 :       0.3061224639       0.0000000000       0.0000000000 
  b2 :       0.0000000000       0.3061224639       0.0000000000 
  b3 :       0.0000000000       0.0000000000       0.3061224639 

unit cell volume :      8646.77193514 [a.u.^3]
1/sqrt(omega)    :         0.01075407
MT volume        : 0.000000 ( 0.00%)
IT volume        : 8646.771935 (100.00%)

number of atom types : 2
type id : 0   symbol :      mt_radius : 203.145959, num_atoms: 1
type id : 1   symbol :      mt_radius : 205.944975, num_atoms: 63
total number of atoms : 64
number of symmetry classes : 10
number of PAW atoms : 0

minimum bond length:       4.443808225120

number of pseudo wave-functions: 261

space group number   : 215
international symbol : P-43m
Hall symbol          : P -4 2 3
space group transformation matrix : 
    1.000000     0.000000     0.000000 
    0.000000     1.000000     0.000000 
    0.000000     0.000000     1.000000 
space group origin shift : 
    0.000000     0.000000     0.000000
number of space group operations  : 24
number of magnetic group operations : 24
metric tensor error:     0.000000000000
rotation matrix error:     0.000000000000

label          : Ge
--------------------------------------------------------------------------------
symbol         : 
name           : 
zn             : 14
mass           : 72.610000
mt_radius      : 203.145959
num_mt_points  : 873
grid_origin    : 0.000000
grid_name      : external

number of core electrons    : 0.000000
number of valence electrons : 14.000000

total number of radial functions : 6
lmax of radial functions         : 2
max. number of radial functions  : 2
total number of basis functions  : 18
number of aw basis functions     : 0
number of lo basis functions     : 18
lmax of beta-projectors          : 2
number of ps wavefunctions       : 3
charge augmentation              : true
vloc is set                      : true
ps_rho_core is set               : true
ps_rho_total is set              : true
Hubbard correction               : false
spin-orbit coupling              : false

label          : Si
--------------------------------------------------------------------------------
symbol         : 
name           : 
zn             : 4
mass           : 28.085500
mt_radius      : 205.944975
num_mt_points  : 899
grid_origin    : 0.000000
grid_name      : external

number of core electrons    : 0.000000
number of valence electrons : 4.000000

total number of radial functions : 6
lmax of radial functions         : 2
max. number of radial functions  : 2
total number of basis functions  : 18
number of aw basis functions     : 0
number of lo basis functions     : 18
lmax of beta-projectors          : 2
number of ps wavefunctions       : 2
charge augmentation              : true
vloc is set                      : true
ps_rho_core is set               : true
ps_rho_total is set              : true
Hubbard correction               : false
spin-orbit coupling              : false

Basic information
--------------------------------------------------------------------------------
total nuclear charge               : 266
number of core electrons           : 0.000000
number of valence electrons        : 266.000000
total number of electrons          : 266.000000
extra charge                       : 0.000000
total number of aw basis functions : 0
total number of lo basis functions : 1152
number of first-variational states : -1
number of bands                    : 800
number of spins                    : 1
number of magnetic dimensions      : 0
number of spinor components        : 1
number of spinors per band index   : 1
lmax_apw                           : -1
lmax_rho                           : 4
lmax_pot                           : 4
lmax_rf                            : 2
smearing type                      : gaussian
smearing width                     : 0.005000
cyclic block size                  : 128
|G+k| cutoff                       : 7.071068
symmetry                           : true
so_correction                      : false
valence relativity                 : zora
core relativity                    : Dirac
standard eigen-value solver        : cuSOLVER
generalized eigen-value solver     : cuSOLVER
processing unit                    : GPU
number of devices                  : 1
  name                             : Tesla P100-PCIE-16GB
  major                            : 6
  minor                            : 0
  clockRate                        : 1328500 kHz
  memoryClockRate                  : 715000 kHz
  memoryBusWidth                   : 4096 bits
  sharedMemPerBlock                : 48 kB
  totalConstMem                    : 64 kB
  totalGlobalMem                   : 16671616 kB
  available memory                 : 14683904 kB
  l2CacheSize                      : 4096 kB
  warpSize                         : 32
  regsPerBlock                     : 65536
  canMapHostMemory                 : 1
  concurrentKernels                : 1
  maxGridSize                      : 2147483647 65535 65535
  maxThreadsDim                    : 1024 1024 64
  maxThreadsPerBlock               : 1024
  maxThreadsPerMultiProcessor      : 2048
  multiProcessorCount              : 56
  pciBusID                         : 2
  pciDeviceID                      : 0
  pciDomainID                      : 0
  regsPerMultiprocessor            : 65536
  asyncEngineCount                 : 2
  ECCEnabled                       : 1
  memPitch                         : 2147483647

iterative solver                   : davidson
number of steps                    : 20
subspace size                      : 2
early restart ratio                : 0.50
precision_wf                       : fp64
precision_hs                       : fp64

spglib version: 1.16.1
HDF5 version: 1.10.7
Libxc version: 5.1.5

XC functionals
==============
1) XC_LDA_X: Slater exchange
P. A. M. Dirac, Math. Proc. Cambridge Philos. Soc. 26, 376 (1930) (10.1017/S0305004100016108)
F. Bloch, Z. Phys. 57, 545 (1929) (10.1007/BF01340281)

2) XC_LDA_C_PZ: Perdew & Zunger
J. P. Perdew and A. Zunger, Phys. Rev. B 23, 5048 (1981) (10.1103/PhysRevB.23.5048)


memory consumption
==================
approximate number of G+k vectors        : 51624
approximate number of G vectors          : 1651992
approximate number of coarse G vectors   : 206499
approximate size of wave-functions for each k-point: 630 Mb, 630 Mb/rank
approximate memory consumption of Davidson solver: 6931 Mb/rank
approximate memory consumption of charge density augmentation: 3576 Mb/rank
approximate memory consumption of FFT transforms: 40 Mb/rank

total number of k-points : 4
--------------------------------------------------------------------------------
  ik                vk                    weight  num_gkvec
--------------------------------------------------------------------------------
   0     0.0000   0.0000   0.0000       0.125000      51627
   1     0.0000   0.0000  -0.5000       0.375000      51678
   2     0.0000  -0.5000  -0.5000       0.375000      51656
   3    -0.5000  -0.5000  -0.5000       0.125000      51752
     Starting wfcs are  261 randomized atomic wfcs +  539 random wfcs

     total cpu time spent up to now is       13.3 secs

     per-process dynamical memory:   790.5 Mb
 
 ============================
 * running SCF ground state *
 ============================

=== Warning at line 217 of file /users/antonk/apps/GNU/SIRIUS/src/density/density.cpp ===
wrong initial charge density
  integral of the density : 265.961298854
  target number of electrons : 266

[find] 
[find] density_tol  : 3.16228e-06
[find] energy_tol   : 0.0001
[find] itsol_tol    : 0.01
[find] num_dft_iter : 100
[find] 
[find] converged after 15 SCF iterations!
[find] 
[find] Charges and magnetic moments
[find] --------------------------------------------------------------------------------
[find] total charge          : 266.000000
[find] 
[find] Energy
[find] --------------------------------------------------------------------------------
[find] valence_eval_sum               :       2.53550772
[find] <rho|V^{XC}>                   :    -124.38171848
[find] <rho|E^{XC}>                   :    -164.44624537
[find] <mag|B^{XC}>                   :       0.00000000
[find] <rho|V^{H}>                    :     151.40183156
[find] one-electron contribution      :     -24.48460536 (Ha),     -48.96921071 (Ry)
[find] hartree contribution           :      75.70091578
[find] xc contribution                :    -164.44624537
[find] ewald contribution             :    -296.65621683
[find] PAW contribution               :       0.00000000
[find] smearing (-TS)                 :      -0.00008563
[find] SCF correction                 :      -0.00000003
[find] Total energy                   :    -409.88623743 (Ha),    -819.77247486 (Ry)
[find] 
[find] band gap (eV)                  :       0.50787019
[find] Efermi                         :       0.23205283
[find] 

!    total energy              =    -819.77247504 Ry
     Harris-Foulkes estimate   =       0.00000000 Ry
     estimated scf accuracy    <          0.0E+00 Ry
     smearing contrib. (-TS)   =      -0.00017125 Ry
     internal energy E=F+TS    =    -819.77230378 Ry

     The total energy is F=E-TS. E is the sum of the following terms:
     one-electron contribution =     -48.96921071 Ry
     hartree contribution      =     151.40183156 Ry
     xc contribution           =    -328.89249073 Ry
     ewald contribution        =    -593.31243383 Ry
     scf correction            =      -0.00000006 Ry
 
     Band energy sum           =       5.07101544 Ry

     convergence has been achieved in   1 iterations

          k = 0.0000 0.0000 0.0000 ( 51627 PWs)   bands (ev):

   -18.1990 -18.1990 -18.1990 -18.1687 -18.1687  -5.9340  -4.9973  -4.8227
    -4.8227  -4.8227  -4.8208  -4.8208  -4.1143  -3.8622  -3.8622  -3.8622
    -3.8578  -3.8578  -3.8578  -3.8577  -3.8577  -3.8577  -3.8577  -3.8577
    -3.6097  -3.5663  -3.5663  -3.5663  -1.9429  -1.7635  -1.7635  -1.7635
    -1.7604  -1.7604  -1.6821  -1.5971  -1.5971  -1.5971  -1.5943  -1.5943
    -1.5943  -1.5936  -1.5936  -1.5936  -1.5934  -1.5934  -0.9550  -0.9375
    -0.9375  -0.9375   0.4474   0.5646   0.5646   0.5646   0.5681   0.5681
     0.5681   0.5691   0.5691   0.5715   0.5715   0.5715   2.1722   2.1722
     2.1722   2.1819   2.1819   2.1819   2.1828   2.1828   2.1828   2.1829
     2.1858   2.1858   2.2673   2.2731   2.2731   2.2731   2.2813   2.2813
     2.2813   2.2832   2.2832   2.2842   2.2842   2.2842   2.4696   2.5276
     2.5276   2.5312   2.5312   2.5312   3.2051   3.2051   3.2051   3.2053
     3.2053   3.2053   4.1653   4.1653   4.1653   4.1669   4.1669   4.1669
     4.1690   4.1690   4.1690   4.1777   4.1777   4.1777   4.7320   4.7320
     4.7320   4.7344   4.7344   4.7344   4.7345   4.7379   4.7379   4.7412
     4.7412   4.7412   4.8628   4.8628   4.8628   4.8660   4.8660   4.8717
     4.8717   4.8717   6.0692   6.0692   6.0692   6.6460   6.6805   6.6805
     6.6805   6.6817   6.6817   7.0851   7.1105   7.1105   7.1182   7.1182
     7.1182   7.4326   7.4912   7.4912   7.4912   8.3767   8.4254   8.4254
     8.4254   8.4279   8.4279   8.4279   8.4501   8.4501   8.4501   8.4508
     8.4508   8.5968   8.5968   8.5968   9.0761   9.1058   9.1058   9.1058
     9.1237   9.1237   9.2227   9.3593   9.3593   9.3593   9.3776   9.3776
     9.3776   9.3934   9.3934  10.2458  10.2458  10.2458  10.2488  10.2527
    10.2527  10.2527  10.2734  10.2734  10.2864  10.2864  10.2864  10.7984
    10.7984  10.7984  10.8038  10.8038  10.8038  10.8045  10.8188  10.8188
    10.8330  10.8330  10.8330  10.9304  10.9793  10.9793  10.9793  10.9844
    10.9844  10.9844  11.0088  11.0088  11.0088  11.0114  11.0114  11.0872
    11.1032  11.1032  11.1032  11.1054  11.1054  11.1105  11.1105  11.1105
    11.1742  11.1742  11.1742  11.7622  11.7622  11.7622  11.7648  11.7648
    11.7648  11.7769  11.7769  11.7769  11.8197  11.8197  11.8197  12.0186
    12.0760  12.0760  12.0760  12.0785  12.0785  12.0785  12.0984  12.0984
    12.1000  12.1000  12.1000  12.4758  12.4758  12.4758  12.4794  12.4794
    12.4794  12.4802  12.5359  12.5359  12.5359  12.5722  12.5722  13.5750
    13.5821  13.5821  13.5821  13.7217  13.8340  13.8340  13.9169  13.9878
    13.9878  13.9922  13.9922  13.9922  15.0050  15.0050  15.0050  15.0083
    15.1037  15.1037  15.5668  15.5679  15.5679  15.5679  15.5852  15.5852
    15.5852  15.5957  15.5957  15.6133  15.6133  15.6133  16.0291  16.0291
    16.0291  16.0622  16.0622  16.0622  16.5373  16.5373  16.5373  16.5422
    16.5422  16.5440  16.5592  16.5592  16.5592  16.5672  16.5672  16.5672
    16.5862  16.5862  16.5862  16.6212  16.6212  16.7090  16.7090  16.7090
    16.9900  16.9900  16.9900  17.0831  17.0831  17.0831  17.1736  17.1818
    17.1818  17.1818  17.2139  17.2347  17.2347  17.2347  17.2402  17.2402
    17.2497  17.2497  17.2497  17.3087  17.3087  17.3087  17.3405  17.3405
    17.3405  17.3684  17.3684  18.4869  18.5186  18.5186  18.5186  18.5196
    18.5196  18.5196  18.5315  18.5315  18.5442  18.5442  18.5442  18.5755
    18.5755  18.5755  18.5832  18.6671  18.6671  18.8082  18.8413  18.8413
    18.8413  18.8577  18.8777  18.8777  18.9000  18.9000  18.9000  18.9502
    18.9502  18.9502  18.9507  18.9507  18.9507  18.9539  18.9539  18.9539
    18.9737  18.9843  18.9843  18.9843  18.9918  18.9918  18.9918  19.0159
    19.0159  19.0159  19.0264  19.0264  19.0264  19.0518  19.0518  19.1358
    19.1464  19.1464  19.1464  19.1720  19.1720  19.1720  19.2067  19.2067
    19.2067  19.2732  19.2732  19.3141  19.3419  19.3419  19.3419  19.3443
    19.3443  19.3443  19.3836  19.3836  19.3836  19.4246  19.4246  19.6043
    19.6099  19.6099  19.6099  19.7350  19.7350  21.1299  22.3208  22.3208
    22.3208  22.3228  22.3228  22.3228  22.3253  22.3450  22.3450  22.3450
    22.3820  22.3820  22.5329  22.5409  22.5409  22.5409  22.5453  22.5453
    22.5517  22.5517  22.5517  22.5800  22.5800  22.5800  22.9870  22.9870
    22.9870  22.9974  22.9974  22.9974  22.9988  23.0649  23.0649  23.0884
    23.0884  23.0884  23.2608  23.2767  23.2767  23.2767  23.2778  23.2778
    23.2844  23.2844  23.2844  23.2863  23.2863  23.2863  23.2867  23.2867
    23.2867  23.2929  23.2929  23.2929  23.3437  23.3437  23.3437  23.5361
    23.5361  23.5361  24.3289  24.3289  24.3289  24.3388  24.3824  24.3824
    24.4434  24.4613  24.4613  24.4613  24.4649  24.4649  24.4649  24.4708
    24.4708  24.4708  24.4778  24.4778  24.6041  24.6041  24.6041  24.6130
    24.6130  24.6130  24.6139  24.6352  24.6352  24.6352  24.6518  24.6518
    24.6898  24.6912  24.6912  24.6912  24.7307  24.7307  24.7660  24.7660
    24.7660  24.7695  24.8059  24.8059  24.8059  24.8197  24.8197  24.8197
    25.1629  25.1629  25.1766  25.2366  25.2366  25.2366  25.5762  25.5762
    25.5762  25.6026  25.6026  25.6026  25.6564  25.6918  25.6918  25.6918
    25.6962  25.6962  25.6962  25.7721  25.7721  25.8178  25.8178  25.8178
    25.8293  25.9371  25.9371  25.9371  26.1766  26.1766  26.1766  26.1853
    26.1884  26.1884  26.1884  26.2652  26.2652  26.2690  26.2690  26.2690
    26.7289  26.7566  26.7566  26.7927  26.7927  26.7927  27.0599  27.0737
    27.0737  27.0737  27.0875  27.0875  27.0875  27.1855  27.1855  27.1893
    27.1893  27.1893  27.3713  27.3874  27.3874  27.4022  27.4022  27.4022
    27.4980  27.4980  27.4980  27.5081  27.5081  27.5081  27.5430  27.5430
    27.6035  27.6035  27.6035  27.6078  27.6078  27.6078  27.6088  27.6088
    27.6088  27.6097  27.6308  27.6308  27.6647  27.6647  27.6647  27.7456
    27.7456  27.7456  28.1832  28.1832  28.8955  28.8955  28.8955  29.4868
    29.4868  29.4868  29.4886  29.4939  29.4939  29.5005  29.5005  29.5005
    29.5551  29.5551  29.5551  29.6745  29.7012  29.7012  29.7012  29.7067
    29.7067  29.7067  29.7946  29.7946  29.8361  29.8361  29.8361  30.0956
    30.0956  30.5744  30.5902  30.5902  30.5902  30.5907  30.5907  30.5907
    30.6019  30.6019  30.6019  30.6100  30.6100  30.6660  30.6732  30.6732
    30.7296  30.7296  30.7296  31.0962  31.0962  31.0962  31.0994  31.0994
    31.0994  31.1015  31.1214  31.1214  31.1214  31.1290  31.1290  31.1317
    31.2948  31.2948  31.3013  31.3013  31.3013  31.4088  31.4682  31.4682
    31.4682  31.5795  31.5795  31.5795  31.9436  31.9753  31.9753  31.9753
    32.1340  32.1340  32.3382  32.3382  32.3382  32.3459  32.3459  32.3459
    32.4464  32.4464  32.5731  32.5823  32.5823  32.5823  32.5984  32.5984
    32.5984  32.5996  32.5996  32.6858  32.6858  32.6858  32.9786  32.9786
    32.9786  32.9838  32.9838  32.9838  32.9863  32.9933  32.9933  32.9933
    33.0550  33.0550  33.0550  33.0624  33.0624  33.0624  33.0628  33.0628
    33.0628  33.0673  33.0673  33.1237  33.1237  33.1237  33.1660  33.1660
    33.1660  33.1737  33.1737  33.3159  33.3159  33.3159  33.3234  33.3339
    33.3339  33.3339  33.3350  33.3350  33.3350  33.4014  33.4014  33.4014
    33.4429  33.4429  33.5041  33.5150  33.5150  33.5150  33.5176  33.5176
    33.5176  33.5424  33.5424  33.5429  33.5429  33.5429  33.5467  33.5467
    33.5467  33.5533  33.5676  33.5676  33.5676  33.8202  33.8202  34.0187
    34.0187  34.0187  34.1645  34.1807  34.1807  34.1808  35.2823  35.2832

     occupation numbers 
     1.0000   1.0000   1.0000   1.0000   1.0000   1.0000   1.0000   1.0000
     1.0000   1.0000   1.0000   1.0000   1.0000   1.0000   1.0000   1.0000
     1.0000   1.0000   1.0000   1.0000   1.0000   1.0000   1.0000   1.0000
     1.0000   1.0000   1.0000   1.0000   1.0000   1.0000   1.0000   1.0000
     1.0000   1.0000   1.0000   1.0000   1.0000   1.0000   1.0000   1.0000
     1.0000   1.0000   1.0000   1.0000   1.0000   1.0000   1.0000   1.0000
     1.0000   1.0000   1.0000   1.0000   1.0000   1.0000   1.0000   1.0000
     1.0000   1.0000   1.0000   1.0000   1.0000   1.0000   1.0000   1.0000
     1.0000   1.0000   1.0000   1.0000   1.0000   1.0000   1.0000   1.0000
     1.0000   1.0000   1.0000   1.0000   1.0000   1.0000   1.0000   1.0000
     1.0000   1.0000   1.0000   1.0000   1.0000   1.0000   1.0000   1.0000
     1.0000   1.0000   1.0000   1.0000   1.0000   1.0000   1.0000   1.0000
     1.0000   1.0000   1.0000   1.0000   1.0000   1.0000   1.0000   1.0000
     1.0000   1.0000   1.0000   1.0000   1.0000   1.0000   1.0000   1.0000
     1.0000   1.0000   1.0000   1.0000   1.0000   1.0000   1.0000   1.0000
     1.0000   1.0000   1.0000   1.0000   1.0000   1.0000   1.0000   1.0000
     1.0000   1.0000   0.9946   0.9946   0.9946   0.0003   0.0001   0.0001
     0.0001   0.0001   0.0001   0.0000   0.0000   0.0000   0.0000   0.0000
     0.0000   0.0000   0.0000   0.0000   0.0000   0.0000   0.0000   0.0000
     0.0000   0.0000   0.0000   0.0000   0.0000   0.0000   0.0000   0.0000
     0.0000   0.0000   0.0000   0.0000   0.0000   0.0000   0.0000   0.0000
     0.0000   0.0000   0.0000   0.0000   0.0000   0.0000   0.0000   0.0000
     0.0000   0.0000   0.0000   0.0000   0.0000   0.0000   0.0000   0.0000
     0.0000   0.0000   0.0000   0.0000   0.0000   0.0000   0.0000   0.0000
     0.0000   0.0000   0.0000   0.0000   0.0000   0.0000   0.0000   0.0000
     0.0000   0.0000   0.0000   0.0000   0.0000   0.0000   0.0000   0.0000
     0.0000   0.0000   0.0000   0.0000   0.0000   0.0000   0.0000   0.0000
     0.0000   0.0000   0.0000   0.0000   0.0000   0.0000   0.0000   0.0000
     0.0000   0.0000   0.0000   0.0000   0.0000   0.0000   0.0000   0.0000
     0.0000   0.0000   0.0000   0.0000   0.0000   0.0000   0.0000   0.0000
     0.0000   0.0000   0.0000   0.0000   0.0000   0.0000   0.0000   0.0000
     0.0000   0.0000   0.0000   0.0000   0.0000   0.0000   0.0000   0.0000
     0.0000   0.0000   0.0000   0.0000   0.0000   0.0000   0.0000   0.0000
     0.0000   0.0000   0.0000   0.0000   0.0000   0.0000   0.0000   0.0000
     0.0000   0.0000   0.0000   0.0000   0.0000   0.0000   0.0000   0.0000
     0.0000   0.0000   0.0000   0.0000   0.0000   0.0000   0.0000   0.0000
     0.0000   0.0000   0.0000   0.0000   0.0000   0.0000   0.0000   0.0000
     0.0000   0.0000   0.0000   0.0000   0.0000   0.0000   0.0000   0.0000
     0.0000   0.0000   0.0000   0.0000   0.0000   0.0000   0.0000   0.0000
     0.0000   0.0000   0.0000   0.0000   0.0000   0.0000   0.0000   0.0000
     0.0000   0.0000   0.0000   0.0000   0.0000   0.0000   0.0000   0.0000
     0.0000   0.0000   0.0000   0.0000   0.0000   0.0000   0.0000   0.0000
     0.0000   0.0000   0.0000   0.0000   0.0000   0.0000   0.0000   0.0000
     0.0000   0.0000   0.0000   0.0000   0.0000   0.0000   0.0000   0.0000
     0.0000   0.0000   0.0000   0.0000   0.0000   0.0000   0.0000   0.0000
     0.0000   0.0000   0.0000   0.0000   0.0000   0.0000   0.0000   0.0000
     0.0000   0.0000   0.0000   0.0000   0.0000   0.0000   0.0000   0.0000
     0.0000   0.0000   0.0000   0.0000   0.0000   0.0000   0.0000   0.0000
     0.0000   0.0000   0.0000   0.0000   0.0000   0.0000   0.0000   0.0000
     0.0000   0.0000   0.0000   0.0000   0.0000   0.0000   0.0000   0.0000
     0.0000   0.0000   0.0000   0.0000   0.0000   0.0000   0.0000   0.0000
     0.0000   0.0000   0.0000   0.0000   0.0000   0.0000   0.0000   0.0000
     0.0000   0.0000   0.0000   0.0000   0.0000   0.0000   0.0000   0.0000
     0.0000   0.0000   0.0000   0.0000   0.0000   0.0000   0.0000   0.0000
     0.0000   0.0000   0.0000   0.0000   0.0000   0.0000   0.0000   0.0000
     0.0000   0.0000   0.0000   0.0000   0.0000   0.0000   0.0000   0.0000
     0.0000   0.0000   0.0000   0.0000   0.0000   0.0000   0.0000   0.0000
     0.0000   0.0000   0.0000   0.0000   0.0000   0.0000   0.0000   0.0000
     0.0000   0.0000   0.0000   0.0000   0.0000   0.0000   0.0000   0.0000
     0.0000   0.0000   0.0000   0.0000   0.0000   0.0000   0.0000   0.0000
     0.0000   0.0000   0.0000   0.0000   0.0000   0.0000   0.0000   0.0000
     0.0000   0.0000   0.0000   0.0000   0.0000   0.0000   0.0000   0.0000
     0.0000   0.0000   0.0000   0.0000   0.0000   0.0000   0.0000   0.0000
     0.0000   0.0000   0.0000   0.0000   0.0000   0.0000   0.0000   0.0000
     0.0000   0.0000   0.0000   0.0000   0.0000   0.0000   0.0000   0.0000
     0.0000   0.0000   0.0000   0.0000   0.0000   0.0000   0.0000   0.0000
     0.0000   0.0000   0.0000   0.0000   0.0000   0.0000   0.0000   0.0000
     0.0000   0.0000   0.0000   0.0000   0.0000   0.0000   0.0000   0.0000
     0.0000   0.0000   0.0000   0.0000   0.0000   0.0000   0.0000   0.0000
     0.0000   0.0000   0.0000   0.0000   0.0000   0.0000   0.0000   0.0000
     0.0000   0.0000   0.0000   0.0000   0.0000   0.0000   0.0000   0.0000
     0.0000   0.0000   0.0000   0.0000   0.0000   0.0000   0.0000   0.0000
     0.0000   0.0000   0.0000   0.0000   0.0000   0.0000   0.0000   0.0000
     0.0000   0.0000   0.0000   0.0000   0.0000   0.0000   0.0000   0.0000
     0.0000   0.0000   0.0000   0.0000   0.0000   0.0000   0.0000   0.0000
     0.0000   0.0000   0.0000   0.0000   0.0000   0.0000   0.0000   0.0000
     0.0000   0.0000   0.0000   0.0000   0.0000   0.0000   0.0000   0.0000
     0.0000   0.0000   0.0000   0.0000   0.0000   0.0000   0.0000   0.0000
     0.0000   0.0000   0.0000   0.0000   0.0000   0.0000   0.0000   0.0000
     0.0000   0.0000   0.0000   0.0000   0.0000   0.0000   0.0000   0.0000
     0.0000   0.0000   0.0000   0.0000   0.0000   0.0000   0.0000   0.0000
     0.0000   0.0000   0.0000   0.0000   0.0000   0.0000   0.0000   0.0000
     0.0000   0.0000   0.0000   0.0000   0.0000   0.0000   0.0000   0.0000
     0.0000   0.0000   0.0000   0.0000   0.0000   0.0000   0.0000   0.0000
     0.0000   0.0000   0.0000   0.0000   0.0000   0.0000   0.0000   0.0000
     0.0000   0.0000   0.0000   0.0000   0.0000   0.0000   0.0000   0.0000
     0.0000   0.0000   0.0000   0.0000   0.0000   0.0000   0.0000   0.0000
     0.0000   0.0000   0.0000   0.0000   0.0000   0.0000   0.0000   0.0000
     0.0000   0.0000   0.0000   0.0000   0.0000   0.0000   0.0000   0.0000
     0.0000   0.0000   0.0000   0.0000   0.0000   0.0000   0.0000   0.0000
     0.0000   0.0000   0.0000   0.0000   0.0000   0.0000   0.0000   0.0000
     0.0000   0.0000   0.0000   0.0000   0.0000   0.0000   0.0000   0.0000
     0.0000   0.0000   0.0000   0.0000   0.0000   0.0000   0.0000   0.0000
     0.0000   0.0000   0.0000   0.0000   0.0000   0.0000   0.0000   0.0000
     0.0000   0.0000   0.0000   0.0000   0.0000   0.0000   0.0000   0.0000
     0.0000   0.0000   0.0000   0.0000   0.0000   0.0000   0.0000   0.0000
     0.0000   0.0000   0.0000   0.0000   0.0000   0.0000   0.0000   0.0000
     0.0000   0.0000   0.0000   0.0000   0.0000   0.0000   0.0000   0.0000
     0.0000   0.0000   0.0000   0.0000   0.0000   0.0000   0.0000   0.0000
     0.0000   0.0000   0.0000   0.0000   0.0000   0.0000   0.0000   0.0000

          k = 0.0000 0.0000-0.0244 ( 51678 PWs)   bands (ev):

   -18.1990 -18.1990 -18.1990 -18.1687 -18.1687  -5.6928  -5.6302  -4.7869
    -4.5765  -4.5765  -4.5748  -4.5735  -4.5730  -4.5730  -4.5725  -3.8957
    -3.7295  -3.7295  -3.7270  -3.7265  -3.7262  -3.7262  -3.7262  -3.5310
    -3.5119  -2.9094  -2.7887  -2.7842  -2.7842  -2.7835  -2.7835  -2.7834
    -2.7830  -1.7972  -1.6862  -1.6862  -1.6817  -1.6811  -1.6811  -1.6811
    -1.6811  -0.6342  -0.5191  -0.5191  -0.5156  -0.5156  -0.5154  -0.5152
    -0.5151  -0.3738  -0.3450  -0.3428  -0.3428  -0.3366  -0.3363  -0.3354
    -0.3354   0.2862   0.3062   1.6811   1.7545   1.7545   1.7567   1.7571
     1.7592   1.7615   1.7615   1.7972   1.7972   1.7992   1.8039   1.8040
     1.8040   1.8042   1.8060   2.6209   2.6209   2.6212   2.6251   2.6256
     2.6277   2.6277   2.6300   3.3227   3.3242   3.3269   3.3269   3.3286
     3.3313   3.3350   3.3350   3.4481   3.4481   3.4537   3.4537   3.4613
     3.4624   3.4624   3.4628   3.4648   3.4663   3.4663   3.4680   3.5659
     3.5799   3.5799   3.5827   3.5844   3.5861   3.5861   3.5864   4.6243
     4.6270   4.6270   4.6289   4.6317   4.6317   4.6327   4.6407   4.6953
     4.7187   4.7938   4.7974   4.7974   4.7974   4.7974   4.8008   4.8042
     4.8042   5.2514   5.2514   5.2618   5.2618   6.5771   6.5912   7.5049
     7.5097   7.9255   7.9433   7.9450   7.9450   7.9480   7.9647   7.9666
     7.9666   8.0109   8.0238   8.2752   8.3281   8.3281   8.3302   8.3324
     8.3340   8.3340   8.3715   8.4356   8.4384   8.4403   8.4406   8.4406
     8.4453   8.4676   8.4676   8.8369   8.8468   8.8488   8.8488   8.8516
     8.8730   8.8730   8.8761   9.6060   9.6114   9.6114   9.6169   9.6267
     9.6267   9.6277   9.6390   9.7300   9.7300   9.7426   9.7426   9.8391
     9.8712   9.8740   9.8740   9.8747   9.8773   9.8792   9.8792   9.8859
     9.8873   9.8885   9.8898   9.8898   9.9378   9.9378   9.9405  10.1848
    10.1849  10.1849  10.1864  10.2004  10.2228  10.2228  10.2556  10.2904
    10.3122  10.5308  10.5313  10.5316  10.5316  10.5404  10.5404  10.5488
    10.5913  11.1906  11.1906  11.1908  11.1931  11.1931  11.1938  11.2133
    11.2342  11.5021  11.5024  11.5026  11.5026  11.5034  11.5180  11.5180
    11.6121  12.5346  12.5518  12.9950  13.0010  13.0051  13.0051  13.0179
    13.0353  13.0419  13.0419  13.7624  13.7850  13.7850  13.7855  13.7859
    13.7868  13.7868  13.8029  13.8101  13.8198  13.8198  13.8230  13.8230
    13.8232  13.8239  13.8278  13.8281  13.8281  13.8300  13.8302  13.8355
    13.8355  13.8410  13.8435  13.8458  13.8473  13.8585  13.8585  13.8711
    13.9224  13.9224  13.9521  14.0285  14.0285  14.0517  14.0517  14.1044
    14.1094  14.1138  14.1191  14.1193  14.1247  14.1247  14.2351  14.2351
    14.2712  14.8244  14.8416  15.1226  15.1282  15.1282  15.1323  15.1404
    15.1404  15.1506  15.1934  15.2224  15.2281  15.2281  15.2455  15.2726
    15.2726  15.2743  15.2891  16.2198  16.2212  16.2275  16.2275  16.2472
    16.2501  16.2501  16.2596  16.4994  16.5417  16.5422  16.5429  16.5429
    16.5435  16.5677  16.5677  16.5808  16.5849  16.6066  16.7328  16.9231
    16.9363  16.9386  16.9411  16.9411  16.9453  16.9693  16.9693  17.1164
    17.1271  17.1271  17.1331  17.1373  17.1373  17.1641  17.2133  17.6477
    17.6477  17.6685  17.6685  18.0283  18.0283  18.0335  18.0342  18.0342
    18.0357  18.0609  18.1234  18.1262  18.1380  18.3764  18.3786  18.3805
    18.3805  18.4080  18.4080  18.4218  18.4811  18.8375  18.8396  18.8396
    18.8399  18.8483  18.8483  18.8525  18.9768  18.9820  18.9820  19.0453
    19.0453  19.4437  19.4672  19.7927  19.7951  19.7965  19.7965  19.8051
    19.8104  19.8595  19.8595  20.0282  20.0300  20.0305  20.0346  20.0346
    20.0903  20.0955  20.0955  20.1666  20.1673  20.1700  20.1700  20.1772
    20.1845  20.1845  20.2133  20.2333  20.2457  20.2479  20.2558  20.2558
    20.3468  20.3789  20.3789  20.4784  20.4847  20.4886  20.4886  20.4953
    20.4953  20.5068  20.5406  20.5463  20.5463  20.5528  20.5636  20.5756
    20.5789  20.5789  20.6017  20.9815  20.9815  20.9837  20.9957  20.9957
    21.0027  21.0131  21.0143  21.2073  21.2943  21.4795  21.4977  21.4977
    21.5047  21.5094  21.5242  21.5336  21.5336  21.7811  21.7820  21.7820
    21.7872  21.7872  21.8032  21.8144  21.8359  21.9037  21.9654  22.2092
    22.2231  22.2231  22.2424  22.2459  22.2719  22.2841  22.2841  22.4728
    22.4764  22.4764  22.4884  22.4884  22.5166  22.5639  22.5773  22.7357
    22.7357  22.7458  22.7458  22.7504  22.7630  22.7630  22.7641  22.8018
    22.8198  22.8565  22.8565  23.0010  23.0145  23.2656  23.2656  23.2745
    23.2804  23.2853  23.2853  23.2920  23.4770  24.0922  24.0927  24.0998
    24.0998  24.1035  24.1154  24.1154  24.1168  24.2447  24.2447  24.2461
    24.2597  24.2774  24.2842  24.2842  24.3922  24.5268  24.5315  24.5315
    24.5351  24.5388  24.5388  24.5699  24.6678  24.7141  24.8130  24.9392
    24.9447  24.9496  24.9496  24.9527  24.9527  24.9578  24.9673  24.9882
    24.9884  24.9885  24.9925  24.9925  25.0366  25.0800  25.0800  25.2425
    25.2440  25.2455  25.2455  25.2511  25.2603  25.2603  25.5712  25.8247
    25.8275  25.8405  25.8405  25.8892  25.8892  25.9077  25.9286  26.3550
    26.3599  26.3599  26.3611  26.3625  26.3675  26.3804  26.3804  26.3895
    26.3907  26.3919  26.3997  26.3997  26.4099  26.4099  26.4413  26.4413
    26.5647  26.6370  26.6370  26.9969  27.0026  27.0026  27.0141  27.0564
    27.0564  27.0737  27.0863  27.5317  27.5338  27.5343  27.5343  27.5415
    27.5418  27.5418  27.5463  27.5506  27.5506  27.5519  27.5989  27.6045
    27.6045  27.6577  27.6750  27.7264  27.9029  27.9451  27.9451  27.9485
    27.9501  27.9501  27.9573  27.9602  27.9771  27.9829  27.9829  27.9893
    28.0032  28.0078  28.0210  28.0894  28.0894  28.2179  28.2188  28.2188
    28.2209  28.2250  28.2699  28.2699  28.3443  28.3518  28.3518  28.3537
    28.3902  28.4245  28.4245  28.4345  28.4951  28.7434  28.7807  28.8622
    28.8633  28.8633  28.8747  28.8833  28.9205  28.9851  28.9851  29.1316
    29.1316  29.1345  29.1378  29.1474  29.1474  29.1671  29.2065  29.2274
    29.2441  29.2567  29.2594  29.2655  29.2655  29.2700  29.2806  29.2899
    29.3188  29.3188  29.4912  29.4928  29.7212  29.9292  29.9310  29.9310
    29.9393  29.9393  29.9440  29.9443  29.9443  29.9557  29.9616  30.1082
    30.1082  30.4433  30.4433  30.4511  30.4707  30.4759  30.4759  30.5044
    30.5094  30.6558  30.6558  30.6658  30.6740  30.6742  30.6986  30.7478
    30.7478  30.8882  30.8970  30.8970  30.9002  30.9131  30.9131  30.9266
    30.9583  31.0318  31.0459  31.0459  31.0604  31.1291  31.1729  31.2360
    31.2410  31.2410  31.3492  31.7196  31.7211  31.7240  31.7393  31.7428
    31.7428  31.7823  31.7823  31.8239  31.8275  31.8312  31.8312  31.8772
    31.8772  31.9696  32.0123  32.2494  32.2926  32.6245  32.6245  32.7032
    32.7032  32.8357  32.9038  33.1675  33.1695  33.1733  33.1733  33.1924
    33.1924  33.2395  33.2916  33.2957  33.2957  33.3075  33.3086  33.3109
    33.3159  33.3336  33.3336  33.3562  33.3597  33.3619  33.3619  33.3710
    33.3710  33.5281  33.6158  33.6424  33.6500  33.6500  33.6530  33.6644
    33.6644  33.6714  33.6734  33.6737  33.6752  33.6753  33.6765  33.7389
    33.7535  33.8145  33.8146  33.8830  33.8831  33.8838  33.8895  34.0007
    34.0248  34.0733  34.0734  34.5232  34.5306  34.5309  34.5538  34.5832
    34.5845  34.6826  34.6833  34.8693  34.8800  34.9126  34.9128  34.9375
    34.9395  34.9552  34.9582  34.9629  34.9655  34.9842  34.9889  35.0054

     occupation numbers 
     1.0000   1.0000   1.0000   1.0000   1.0000   1.0000   1.0000   1.0000
     1.0000   1.0000   1.0000   1.0000   1.0000   1.0000   1.0000   1.0000
     1.0000   1.0000   1.0000   1.0000   1.0000   1.0000   1.0000   1.0000
     1.0000   1.0000   1.0000   1.0000   1.0000   1.0000   1.0000   1.0000
     1.0000   1.0000   1.0000   1.0000   1.0000   1.0000   1.0000   1.0000
     1.0000   1.0000   1.0000   1.0000   1.0000   1.0000   1.0000   1.0000
     1.0000   1.0000   1.0000   1.0000   1.0000   1.0000   1.0000   1.0000
     1.0000   1.0000   1.0000   1.0000   1.0000   1.0000   1.0000   1.0000
     1.0000   1.0000   1.0000   1.0000   1.0000   1.0000   1.0000   1.0000
     1.0000   1.0000   1.0000   1.0000   1.0000   1.0000   1.0000   1.0000
     1.0000   1.0000   1.0000   1.0000   1.0000   1.0000   1.0000   1.0000
     1.0000   1.0000   1.0000   1.0000   1.0000   1.0000   1.0000   1.0000
     1.0000   1.0000   1.0000   1.0000   1.0000   1.0000   1.0000   1.0000
     1.0000   1.0000   1.0000   1.0000   1.0000   1.0000   1.0000   1.0000
     1.0000   1.0000   1.0000   1.0000   1.0000   1.0000   1.0000   1.0000
     1.0000   1.0000   1.0000   1.0000   1.0000   1.0000   1.0000   1.0000
     1.0000   1.0000   1.0000   1.0000   1.0000   0.0032   0.0020   0.0000
     0.0000   0.0000   0.0000   0.0000   0.0000   0.0000   0.0000   0.0000
     0.0000   0.0000   0.0000   0.0000   0.0000   0.0000   0.0000   0.0000
     0.0000   0.0000   0.0000   0.0000   0.0000   0.0000   0.0000   0.0000
     0.0000   0.0000   0.0000   0.0000   0.0000   0.0000   0.0000   0.0000
     0.0000   0.0000   0.0000   0.0000   0.0000   0.0000   0.0000   0.0000
     0.0000   0.0000   0.0000   0.0000   0.0000   0.0000   0.0000   0.0000
     0.0000   0.0000   0.0000   0.0000   0.0000   0.0000   0.0000   0.0000
     0.0000   0.0000   0.0000   0.0000   0.0000   0.0000   0.0000   0.0000
     0.0000   0.0000   0.0000   0.0000   0.0000   0.0000   0.0000   0.0000
     0.0000   0.0000   0.0000   0.0000   0.0000   0.0000   0.0000   0.0000
     0.0000   0.0000   0.0000   0.0000   0.0000   0.0000   0.0000   0.0000
     0.0000   0.0000   0.0000   0.0000   0.0000   0.0000   0.0000   0.0000
     0.0000   0.0000   0.0000   0.0000   0.0000   0.0000   0.0000   0.0000
     0.0000   0.0000   0.0000   0.0000   0.0000   0.0000   0.0000   0.0000
     0.0000   0.0000   0.0000   0.0000   0.0000   0.0000   0.0000   0.0000
     0.0000   0.0000   0.0000   0.0000   0.0000   0.0000   0.0000   0.0000
     0.0000   0.0000   0.0000   0.0000   0.0000   0.0000   0.0000   0.0000
     0.0000   0.0000   0.0000   0.0000   0.0000   0.0000   0.0000   0.0000
     0.0000   0.0000   0.0000   0.0000   0.0000   0.0000   0.0000   0.0000
     0.0000   0.0000   0.0000   0.0000   0.0000   0.0000   0.0000   0.0000
     0.0000   0.0000   0.0000   0.0000   0.0000   0.0000   0.0000   0.0000
     0.0000   0.0000   0.0000   0.0000   0.0000   0.0000   0.0000   0.0000
     0.0000   0.0000   0.0000   0.0000   0.0000   0.0000   0.0000   0.0000
     0.0000   0.0000   0.0000   0.0000   0.0000   0.0000   0.0000   0.0000
     0.0000   0.0000   0.0000   0.0000   0.0000   0.0000   0.0000   0.0000
     0.0000   0.0000   0.0000   0.0000   0.0000   0.0000   0.0000   0.0000
     0.0000   0.0000   0.0000   0.0000   0.0000   0.0000   0.0000   0.0000
     0.0000   0.0000   0.0000   0.0000   0.0000   0.0000   0.0000   0.0000
     0.0000   0.0000   0.0000   0.0000   0.0000   0.0000   0.0000   0.0000
     0.0000   0.0000   0.0000   0.0000   0.0000   0.0000   0.0000   0.0000
     0.0000   0.0000   0.0000   0.0000   0.0000   0.0000   0.0000   0.0000
     0.0000   0.0000   0.0000   0.0000   0.0000   0.0000   0.0000   0.0000
     0.0000   0.0000   0.0000   0.0000   0.0000   0.0000   0.0000   0.0000
     0.0000   0.0000   0.0000   0.0000   0.0000   0.0000   0.0000   0.0000
     0.0000   0.0000   0.0000   0.0000   0.0000   0.0000   0.0000   0.0000
     0.0000   0.0000   0.0000   0.0000   0.0000   0.0000   0.0000   0.0000
     0.0000   0.0000   0.0000   0.0000   0.0000   0.0000   0.0000   0.0000
     0.0000   0.0000   0.0000   0.0000   0.0000   0.0000   0.0000   0.0000
     0.0000   0.0000   0.0000   0.0000   0.0000   0.0000   0.0000   0.0000
     0.0000   0.0000   0.0000   0.0000   0.0000   0.0000   0.0000   0.0000
     0.0000   0.0000   0.0000   0.0000   0.0000   0.0000   0.0000   0.0000
     0.0000   0.0000   0.0000   0.0000   0.0000   0.0000   0.0000   0.0000
     0.0000   0.0000   0.0000   0.0000   0.0000   0.0000   0.0000   0.0000
     0.0000   0.0000   0.0000   0.0000   0.0000   0.0000   0.0000   0.0000
     0.0000   0.0000   0.0000   0.0000   0.0000   0.0000   0.0000   0.0000
     0.0000   0.0000   0.0000   0.0000   0.0000   0.0000   0.0000   0.0000
     0.0000   0.0000   0.0000   0.0000   0.0000   0.0000   0.0000   0.0000
     0.0000   0.0000   0.0000   0.0000   0.0000   0.0000   0.0000   0.0000
     0.0000   0.0000   0.0000   0.0000   0.0000   0.0000   0.0000   0.0000
     0.0000   0.0000   0.0000   0.0000   0.0000   0.0000   0.0000   0.0000
     0.0000   0.0000   0.0000   0.0000   0.0000   0.0000   0.0000   0.0000
     0.0000   0.0000   0.0000   0.0000   0.0000   0.0000   0.0000   0.0000
     0.0000   0.0000   0.0000   0.0000   0.0000   0.0000   0.0000   0.0000
     0.0000   0.0000   0.0000   0.0000   0.0000   0.0000   0.0000   0.0000
     0.0000   0.0000   0.0000   0.0000   0.0000   0.0000   0.0000   0.0000
     0.0000   0.0000   0.0000   0.0000   0.0000   0.0000   0.0000   0.0000
     0.0000   0.0000   0.0000   0.0000   0.0000   0.0000   0.0000   0.0000
     0.0000   0.0000   0.0000   0.0000   0.0000   0.0000   0.0000   0.0000
     0.0000   0.0000   0.0000   0.0000   0.0000   0.0000   0.0000   0.0000
     0.0000   0.0000   0.0000   0.0000   0.0000   0.0000   0.0000   0.0000
     0.0000   0.0000   0.0000   0.0000   0.0000   0.0000   0.0000   0.0000
     0.0000   0.0000   0.0000   0.0000   0.0000   0.0000   0.0000   0.0000
     0.0000   0.0000   0.0000   0.0000   0.0000   0.0000   0.0000   0.0000
     0.0000   0.0000   0.0000   0.0000   0.0000   0.0000   0.0000   0.0000
     0.0000   0.0000   0.0000   0.0000   0.0000   0.0000   0.0000   0.0000
     0.0000   0.0000   0.0000   0.0000   0.0000   0.0000   0.0000   0.0000
     0.0000   0.0000   0.0000   0.0000   0.0000   0.0000   0.0000   0.0000
     0.0000   0.0000   0.0000   0.0000   0.0000   0.0000   0.0000   0.0000
     0.0000   0.0000   0.0000   0.0000   0.0000   0.0000   0.0000   0.0000
     0.0000   0.0000   0.0000   0.0000   0.0000   0.0000   0.0000   0.0000
     0.0000   0.0000   0.0000   0.0000   0.0000   0.0000   0.0000   0.0000
     0.0000   0.0000   0.0000   0.0000   0.0000   0.0000   0.0000   0.0000
     0.0000   0.0000   0.0000   0.0000   0.0000   0.0000   0.0000   0.0000
     0.0000   0.0000   0.0000   0.0000   0.0000   0.0000   0.0000   0.0000
     0.0000   0.0000   0.0000   0.0000   0.0000   0.0000   0.0000   0.0000
     0.0000   0.0000   0.0000   0.0000   0.0000   0.0000   0.0000   0.0000
     0.0000   0.0000   0.0000   0.0000   0.0000   0.0000   0.0000   0.0000
     0.0000   0.0000   0.0000   0.0000   0.0000   0.0000   0.0000   0.0000
     0.0000   0.0000   0.0000   0.0000   0.0000   0.0000   0.0000   0.0000
     0.0000   0.0000   0.0000   0.0000   0.0000   0.0000   0.0000   0.0000
     0.0000   0.0000   0.0000   0.0000   0.0000   0.0000   0.0000   0.0000
     0.0000   0.0000   0.0000   0.0000   0.0000   0.0000   0.0000   0.0000
     0.0000   0.0000   0.0000   0.0000   0.0000   0.0000   0.0000   0.0000

          k = 0.0000-0.0244-0.0244 ( 51656 PWs)   bands (ev):

   -18.1990 -18.1990 -18.1990 -18.1687 -18.1687  -5.4835  -5.3632  -5.3632
    -5.3621  -4.5405  -4.3511  -4.3464  -4.3464  -4.3453  -4.3452  -4.3452
    -4.3451  -3.5004  -3.3149  -3.3149  -3.3095  -3.3095  -3.3094  -3.3093
    -3.3093  -3.1176  -3.0308  -3.0308  -3.0289  -3.0286  -3.0285  -3.0281
    -3.0281  -2.2276  -2.1715  -2.1701  -2.1701  -1.2333  -1.1777  -1.1727
    -1.1727  -0.8132  -0.7496  -0.7496  -0.7475  -0.7427  -0.7422  -0.7418
    -0.7418  -0.0062   0.0874   0.0886   0.0886   0.0889   0.0889   0.0892
     0.0895   0.7042   0.7526   0.7526   0.7540   0.7577   0.7592   0.7592
     0.7623   1.7252   1.7252   1.7263   1.7311   2.5671   2.5841   2.5842
     2.5842   2.5872   2.5909   2.5909   2.5910   2.6741   2.6741   2.6773
     2.6780   2.6781   2.6802   2.6804   2.6804   3.2843   3.2875   3.2882
     3.2882   3.2903   3.2903   3.2915   3.2922   3.3327   3.3583   3.3655
     3.3655   3.6326   3.6326   3.6345   3.6362   3.8903   3.8903   3.8945
     3.8949   3.8955   3.8955   3.8982   3.8993   4.1923   4.2098   4.2106
     4.2106   4.2133   4.2137   4.2137   4.2220   4.4177   4.4188   4.4188
     4.4305   4.4710   4.4710   4.4719   4.4737   4.4738   4.4752   4.4827
     4.4827   5.7699   5.7712   5.7816   5.7816   7.1675   7.1675   7.1687
     7.1890   7.9056   7.9258   7.9281   7.9281   7.9338   7.9428   7.9505
     7.9505   8.2028   8.2230   8.2240   8.2240   8.2249   8.2296   8.2296
     8.2659   8.6093   8.6165   8.6180   8.6180   8.6189   8.6366   8.6366
     8.6506   8.9714   9.0262   9.0262   9.0437   9.0470   9.0480   9.0484
     9.0484   9.0516   9.0556   9.0616   9.0616   9.1174   9.1179   9.1179
     9.1180   9.1227   9.1312   9.1312   9.1427   9.1456   9.1689   9.1817
     9.1817   9.3457   9.3696   9.3699   9.3699   9.6153   9.6331   9.6331
     9.6362   9.6369   9.6376   9.6657   9.6657  10.1101  10.1101  10.1189
    10.1390  10.4832  10.4836  10.4848  10.4883  10.4883  10.5178  10.5178
    10.5350  11.4302  11.4433  11.4451  11.4451  11.4452  11.4516  11.4516
    11.4753  11.4940  11.4940  11.5046  11.5214  11.7383  11.7383  11.7391
    11.7434  11.7470  11.7470  11.7570  11.7906  11.9074  11.9074  11.9081
    11.9097  11.9176  11.9176  11.9422  12.0303  12.3836  12.3933  12.3933
    12.4581  13.0909  13.0946  13.0946  13.0967  13.1092  13.1223  13.1355
    13.1355  13.3507  13.3605  13.3605  13.3651  13.3682  13.3687  13.3870
    13.3870  13.4568  13.4863  13.4863  13.4876  13.9617  13.9646  13.9725
    13.9725  13.9729  13.9730  13.9751  13.9761  13.9761  14.0250  14.0264
    14.0264  14.0548  14.0854  14.0854  14.0888  14.1614  14.1623  14.1840
    14.1840  14.5374  14.5845  14.5845  14.5881  15.2539  15.2568  15.2568
    15.2598  15.2633  15.2711  15.2711  15.2905  15.3500  15.3578  15.3583
    15.3596  15.3596  15.4228  15.4228  15.4877  15.5502  15.5741  15.5798
    15.5798  15.7918  15.8204  15.8286  15.8286  15.8290  15.8474  15.8474
    15.8672  16.1476  16.1571  16.1571  16.1635  16.1642  16.1735  16.1735
    16.1743  16.1761  16.1858  16.1858  16.2121  16.2121  16.2399  16.2496
    16.2612  16.5451  16.5465  16.5465  16.5540  16.5540  16.5691  16.5753
    16.7243  17.0994  17.1056  17.1056  17.1302  17.6376  17.6386  17.6386
    17.6399  17.6512  17.6512  17.6646  17.7261  18.2877  18.2879  18.2879
    18.2885  18.3092  18.3102  18.3119  18.3119  18.3202  18.3202  18.3581
    18.3939  18.8074  18.8151  18.8151  18.8171  18.8248  18.8248  18.8596
    18.8846  19.2659  19.2688  19.2758  19.2758  19.2763  19.2863  19.2921
    19.2952  19.2952  19.3106  19.3106  19.3238  19.3238  19.3255  19.3256
    19.3587  19.3719  19.3801  19.3820  19.3904  19.3904  19.4697  19.5227
    19.5227  20.0970  20.0971  20.0971  20.0995  20.1040  20.1126  20.1126
    20.1375  20.4281  20.4398  20.4398  20.4595  20.5338  20.5340  20.5340
    20.5415  20.5415  20.5455  20.5457  20.5640  20.5640  20.5819  20.5993
    20.6070  20.8891  20.9380  20.9380  20.9535  21.1169  21.1189  21.1189
    21.1263  21.1431  21.1557  21.2172  21.2172  21.3979  21.4010  21.4010
    21.4077  21.4112  21.4270  21.4270  21.4330  21.4339  21.4599  21.4599
    21.4809  21.4934  21.4983  21.4983  21.5127  21.5224  21.5801  21.5801
    21.6273  21.6797  21.6873  21.6896  21.6896  21.7636  21.7636  21.7729
    21.8062  22.5729  22.5789  22.5789  22.5815  22.5885  22.5938  22.5938
    22.6050  22.6059  22.6089  22.6089  22.6108  22.6123  22.6222  22.6222
    22.7297  22.9423  22.9683  22.9843  22.9843  22.9927  22.9927  23.0008
    23.0448  23.0526  23.0526  23.0840  23.1563  23.5260  23.5263  23.5263
    23.5333  23.5482  23.5482  23.5694  23.5770  23.6313  23.6313  23.6881
    23.7083  23.9179  23.9295  23.9520  23.9520  23.9963  23.9990  23.9990
    24.0175  24.0175  24.0227  24.0744  24.0777  24.3130  24.3153  24.3153
    24.3203  24.3662  24.3791  24.3791  24.3957  24.4847  24.4989  24.4989
    24.5031  24.5194  24.5194  24.5826  24.6521  25.3602  25.3602  25.3615
    25.3757  25.3757  25.3872  25.3950  25.3973  25.4281  25.4303  25.4303
    25.4355  25.4372  25.4372  25.4548  25.5378  25.5378  25.5456  25.5783
    25.5901  25.7551  25.7551  25.7671  25.7952  25.8136  25.8141  25.8141
    25.8441  25.8512  25.8512  25.9212  26.0936  26.6457  26.6468  26.6468
    26.6696  26.6697  26.6921  26.6921  26.7090  26.7601  26.7755  26.7755
    26.8076  26.8338  26.8413  26.8413  26.8466  26.8587  26.9134  26.9134
    26.9265  27.0242  27.0347  27.1270  27.1270  27.4651  27.4679  27.4683
    27.4712  27.4712  27.4776  27.4781  27.4781  27.5725  27.5823  27.5823
    27.6116  27.6161  27.6179  27.6268  27.6276  27.6276  27.6563  27.6907
    27.6907  27.7166  27.7304  27.7310  27.7375  27.7375  27.7507  27.7507
    27.7607  27.7631  27.7631  27.7637  27.7637  27.7731  27.7999  27.8105
    27.8105  27.8253  27.8268  27.8268  27.8927  27.9218  28.1446  28.1446
    28.3754  28.3859  28.3859  28.3952  28.3963  28.3963  28.4526  28.5036
    28.5446  28.7467  28.7568  28.7598  28.7598  28.7898  28.7903  28.7903
    28.8326  28.8706  28.8706  28.9825  29.1507  29.3506  29.3506  29.3525
    29.3548  29.3655  29.3655  29.3724  29.3893  29.3940  29.3940  29.4010
    29.4222  29.4500  29.4500  29.5268  29.6372  29.9855  29.9855  29.9864
    30.0059  30.0239  30.1476  30.1476  30.2144  30.5872  30.5998  30.5998
    30.5999  30.6068  30.6120  30.6798  30.6798  30.7952  30.7952  30.7957
    30.8390  30.8471  30.8644  30.8815  30.8815  31.0278  31.0278  31.0374
    31.0600  31.2732  31.2765  31.2785  31.2785  31.2839  31.2839  31.3184
    31.3353  31.3411  31.3411  31.3415  31.3561  31.3771  31.3802  31.3802
    31.4001  31.4001  31.4038  31.4132  31.4137  31.4137  31.4797  31.5638
    31.6220  31.7918  31.8078  31.8078  31.8466  32.0405  32.0415  32.0415
    32.0417  32.0525  32.0558  32.0623  32.0623  32.0746  32.0746  32.0898
    32.1449  32.1449  32.1515  32.1618  32.1771  32.2940  32.2940  32.3416
    32.4601  32.5570  32.5570  32.6134  32.6246  33.2480  33.2480  33.2501
    33.2507  33.2521  33.2617  33.3430  33.3430  33.3766  33.3812  33.3864
    33.3864  33.3922  33.4095  33.6340  33.6341  34.0103  34.0139  34.0139
    34.0240  34.0240  34.0350  34.0379  34.0515  34.0819  34.0876  34.0876
    34.0932  34.1109  34.1547  34.1978  34.1978  34.3664  34.5010  34.5010
    34.5498  34.8738  34.8739  34.8748  34.8951  34.9014  34.9041  34.9041
    34.9170  34.9171  34.9264  34.9454  35.0076  35.0117  35.0177  35.0179
    35.0533  35.0535  35.0795  35.0815  35.1020  35.2880  35.2899  35.3619

     occupation numbers 
     1.0000   1.0000   1.0000   1.0000   1.0000   1.0000   1.0000   1.0000
     1.0000   1.0000   1.0000   1.0000   1.0000   1.0000   1.0000   1.0000
     1.0000   1.0000   1.0000   1.0000   1.0000   1.0000   1.0000   1.0000
     1.0000   1.0000   1.0000   1.0000   1.0000   1.0000   1.0000   1.0000
     1.0000   1.0000   1.0000   1.0000   1.0000   1.0000   1.0000   1.0000
     1.0000   1.0000   1.0000   1.0000   1.0000   1.0000   1.0000   1.0000
     1.0000   1.0000   1.0000   1.0000   1.0000   1.0000   1.0000   1.0000
     1.0000   1.0000   1.0000   1.0000   1.0000   1.0000   1.0000   1.0000
     1.0000   1.0000   1.0000   1.0000   1.0000   1.0000   1.0000   1.0000
     1.0000   1.0000   1.0000   1.0000   1.0000   1.0000   1.0000   1.0000
     1.0000   1.0000   1.0000   1.0000   1.0000   1.0000   1.0000   1.0000
     1.0000   1.0000   1.0000   1.0000   1.0000   1.0000   1.0000   1.0000
     1.0000   1.0000   1.0000   1.0000   1.0000   1.0000   1.0000   1.0000
     1.0000   1.0000   1.0000   1.0000   1.0000   1.0000   1.0000   1.0000
     1.0000   1.0000   1.0000   1.0000   1.0000   1.0000   1.0000   1.0000
     1.0000   1.0000   1.0000   1.0000   1.0000   1.0000   1.0000   1.0000
     1.0000   1.0000   1.0000   1.0000   1.0000   0.0000   0.0000   0.0000
     0.0000   0.0000   0.0000   0.0000   0.0000   0.0000   0.0000   0.0000
     0.0000   0.0000   0.0000   0.0000   0.0000   0.0000   0.0000   0.0000
     0.0000   0.0000   0.0000   0.0000   0.0000   0.0000   0.0000   0.0000
     0.0000   0.0000   0.0000   0.0000   0.0000   0.0000   0.0000   0.0000
     0.0000   0.0000   0.0000   0.0000   0.0000   0.0000   0.0000   0.0000
     0.0000   0.0000   0.0000   0.0000   0.0000   0.0000   0.0000   0.0000
     0.0000   0.0000   0.0000   0.0000   0.0000   0.0000   0.0000   0.0000
     0.0000   0.0000   0.0000   0.0000   0.0000   0.0000   0.0000   0.0000
     0.0000   0.0000   0.0000   0.0000   0.0000   0.0000   0.0000   0.0000
     0.0000   0.0000   0.0000   0.0000   0.0000   0.0000   0.0000   0.0000
     0.0000   0.0000   0.0000   0.0000   0.0000   0.0000   0.0000   0.0000
     0.0000   0.0000   0.0000   0.0000   0.0000   0.0000   0.0000   0.0000
     0.0000   0.0000   0.0000   0.0000   0.0000   0.0000   0.0000   0.0000
     0.0000   0.0000   0.0000   0.0000   0.0000   0.0000   0.0000   0.0000
     0.0000   0.0000   0.0000   0.0000   0.0000   0.0000   0.0000   0.0000
     0.0000   0.0000   0.0000   0.0000   0.0000   0.0000   0.0000   0.0000
     0.0000   0.0000   0.0000   0.0000   0.0000   0.0000   0.0000   0.0000
     0.0000   0.0000   0.0000   0.0000   0.0000   0.0000   0.0000   0.0000
     0.0000   0.0000   0.0000   0.0000   0.0000   0.0000   0.0000   0.0000
     0.0000   0.0000   0.0000   0.0000   0.0000   0.0000   0.0000   0.0000
     0.0000   0.0000   0.0000   0.0000   0.0000   0.0000   0.0000   0.0000
     0.0000   0.0000   0.0000   0.0000   0.0000   0.0000   0.0000   0.0000
     0.0000   0.0000   0.0000   0.0000   0.0000   0.0000   0.0000   0.0000
     0.0000   0.0000   0.0000   0.0000   0.0000   0.0000   0.0000   0.0000
     0.0000   0.0000   0.0000   0.0000   0.0000   0.0000   0.0000   0.0000
     0.0000   0.0000   0.0000   0.0000   0.0000   0.0000   0.0000   0.0000
[...]
 sirius::Density::augment                                           15       3.02 s        3.25     100.00     201.27 ms     201.25 ms     201.31 ms
 sirius::Density::generate_rho_aug                                  15       3.01 s        3.24     100.00     200.96 ms     200.95 ms     201.01 ms
 sirius::Band::set_subspace_mtrx                                    73       2.95 s        3.17     100.00      19.11 ms       3.86 ms     138.02 ms
 sirius::inner                                                     218       2.88 s        3.10     100.00      13.06 ms      12.18 ms      16.01 ms
 setup_sirius                                                        1       2.73 s        2.93     100.00       2.73 s        2.73 s        2.73 s 
 sddk::orthogonalize|transform                                      69       2.70 s        2.90     100.00       6.73 ms     157.25 us     111.18 ms
 sirius::Simulation_context::initialize                              1       2.52 s        2.71     100.00       2.52 s        2.52 s        2.52 s 
 sirius::Simulation_context::update                                  1       2.51 s        2.70     100.00       2.51 s        2.51 s        2.51 s 
 sirius::residuals                                                  69       2.35 s        2.52     100.00      10.51 ms     106.24 us     216.69 ms
 sirius::project_out_subspace                                       54       2.07 s        2.23     100.00      17.94 ms       6.49 ms     130.45 ms
 hinit0                                                              1       1.63 s        1.76     100.00       1.63 s        1.63 s        1.63 s 
 forces                                                              1       1.44 s        1.55     100.00       1.44 s        1.44 s        1.44 s 
 sirius::initialize                                                  1       1.44 s        1.55     100.00       1.44 s        1.44 s        1.44 s 
 sirius::Augmentation_operator::generate_pw_coeffs                   2       1.43 s        1.54     100.00     715.87 ms     712.65 ms     719.09 ms
 sirius::Force::calc_forces_us                                       1     934.98 ms       1.01     100.00     934.98 ms     934.98 ms     934.98 ms
 init_us_1                                                           1     809.31 ms       0.87     100.00     809.31 ms     809.31 ms     809.31 ms
 sirius::Density::add_k_point_contribution_rg                       15     790.41 ms       0.85     100.00      52.81 ms      52.10 ms      53.20 ms
 sirius::Smooth_periodic_function::fft_transform                   119     662.87 ms       0.71     100.00       6.77 ms       1.42 ms      10.39 ms
 sirius_api::sirius_get_wave_functions                               4     627.57 ms       0.68     100.00     288.12 us     264.13 us     626.73 ms
 sirius::Potential::xc                                              16     615.71 ms       0.66     100.00      38.39 ms      37.78 ms      39.09 ms
 potinit                                                             1     606.23 ms       0.65     100.00     606.23 ms     606.23 ms     606.23 ms
 sirius::Potential::xc_rg_nonmagnetic                               16     567.02 ms       0.61     100.00      35.35 ms      34.75 ms      36.06 ms
 sirius::Beta_projectors_base::generate                            100     503.38 ms       0.54     100.00       4.36 ms       4.23 ms       6.82 ms
 sirius::Density::get_magnetisation                                 16     503.23 ms       0.54     100.00      31.33 ms      31.26 ms      31.96 ms
 sirius::Density::compute_atomic_mag_mom                            16     503.09 ms       0.54     100.00      31.32 ms      31.25 ms      31.95 ms
 qe|setup                                                            1     450.11 ms       0.48     100.00     450.11 ms     450.11 ms     450.11 ms
 sirius::Density::mix                                               15     435.45 ms       0.47     100.00      33.18 ms      14.08 ms      33.68 ms
 sirius::Stress|ewald                                                1     430.85 ms       0.46     100.00     430.85 ms     430.85 ms     430.85 ms
 sirius::Stress|nonloc                                               1     408.51 ms       0.44     100.00     408.51 ms     408.51 ms     408.51 ms
 sirius::Non_local_functor::add_k_point                              2     403.94 ms       0.43     100.00     201.97 ms     112.09 ms     291.85 ms
 sirius::Potential::xc_rg_nonmagnetic|libxc                         32     396.91 ms       0.43     100.00      12.77 ms       9.35 ms      15.56 ms
 sddk::Gvec::init                                                   10     390.20 ms       0.42     100.00       3.03 ms       2.36 ms     331.35 ms
 v_of_rho                                                            1     357.49 ms       0.38     100.00     357.49 ms     357.49 ms     357.49 ms
 sirius::Density::symmetrize_density_matrix                         15     356.09 ms       0.38     100.00      23.60 ms      23.55 ms      25.72 ms
 sirius::Density::add_k_point_contribution_dm                       15     346.37 ms       0.37     100.00      23.04 ms      22.91 ms      23.53 ms
 sirius::Potential::poisson                                         16     331.41 ms       0.36     100.00      20.43 ms      19.84 ms      22.62 ms
 sddk::Gvec::find_gvec_shells                                        2     307.69 ms       0.33     100.00     153.85 ms      29.17 ms     278.52 ms
 qe|setlocal                                                         1     270.95 ms       0.29     100.00     270.95 ms     270.95 ms     270.95 ms
 sirius::Periodic_function::integrate                               17     227.17 ms       0.24     100.00      13.21 ms      12.89 ms      14.65 ms
 sddk::orthogonalize|tmtrx                                          69     211.35 ms       0.23     100.00     541.15 us      13.85 us      32.35 ms
 sddk::Gvec_shells::remap_forward                                   31     211.21 ms       0.23     100.00       6.45 ms       5.98 ms       8.12 ms
 v_xc                                                                1     210.30 ms       0.23     100.00     210.30 ms     210.30 ms     210.30 ms
 sddk::Gvec_shells                                                   1     210.28 ms       0.23     100.00     210.28 ms     210.28 ms     210.28 ms
 sirius::Stress|us|prepare                                          18     207.60 ms       0.22     100.00      11.52 ms     515.91 us      22.86 ms
 fft                                                                 6     194.13 ms       0.21     100.00      15.90 ms      15.58 ms     114.78 ms
 sirius::Force::calc_forces_nonloc                                   1     190.15 ms       0.20     100.00     190.15 ms     190.15 ms     190.15 ms
 sddk::Gvec_shells::remap_backward                                  31     166.92 ms       0.18     100.00       5.31 ms       5.25 ms       6.71 ms
 sirius::normalized_preconditioned_residuals                        58     155.11 ms       0.17     100.00     817.30 us     217.31 us      11.01 ms
 sirius::finalize                                                    1     149.79 ms       0.16     100.00     149.79 ms     149.79 ms     149.79 ms
 v_h                                                                 1     147.16 ms       0.16     100.00     147.16 ms     147.16 ms     147.16 ms
 sirius::Augmentation_operator_gvec_deriv                            1     142.55 ms       0.15     100.00     142.55 ms     142.55 ms     142.55 ms
 init_vloc                                                           1     142.10 ms       0.15     100.00     142.10 ms     142.10 ms     142.10 ms
 Eigensolver_cuda|zhegvdx                                            2     139.25 ms       0.15     100.00      69.62 ms      68.46 ms      70.78 ms
 sirius::Force::calc_forces_ewald                                    1     137.07 ms       0.15     100.00     137.07 ms     137.07 ms     137.07 ms
 sirius::Density::mixer_output                                      15     117.47 ms       0.13     100.00       7.72 ms       7.65 ms       8.73 ms
 sirius::Hamiltonian0                                               17     103.44 ms       0.11     100.00       5.71 ms       5.66 ms      10.77 ms
 qe|set_vrs                                                          1      94.90 ms       0.10     100.00      94.90 ms      94.90 ms      94.90 ms
 sirius::Radial_integrals|atomic_wfs                                 4      84.31 ms       0.09     100.00      18.70 ms       1.41 us      46.91 ms
 sirius::Potential                                                   1      74.08 ms       0.08     100.00      74.08 ms      74.08 ms      74.08 ms
 sirius::Density::initial_density                                    1      74.04 ms       0.08     100.00      74.04 ms      74.04 ms      74.04 ms
 interpolate                                                         1      68.52 ms       0.07     100.00      68.52 ms      68.52 ms      68.52 ms
 sirius::Local_operator                                             17      67.28 ms       0.07     100.00       3.59 ms       3.57 ms       8.42 ms
 sirius::Force::calc_forces_core                                     1      64.82 ms       0.07     100.00      64.82 ms      64.82 ms      64.82 ms
 sirius::Hamiltonian_k::get_h_o_diag                                15      64.12 ms       0.07     100.00       4.18 ms       4.16 ms       5.40 ms
 sirius::Density                                                     2      63.04 ms       0.07     100.00      31.52 ms      29.44 ms      33.60 ms
 sirius::Force::calc_forces_scf_corr                                 1      60.45 ms       0.07     100.00      60.45 ms      60.45 ms      60.45 ms
 sirius::Band::initialize_subspace|kp|wf                             2      55.14 ms       0.06     100.00      27.57 ms      27.54 ms      27.60 ms
 sirius::Force::calc_forces_vloc                                     1      54.87 ms       0.06     100.00      54.87 ms      54.87 ms      54.87 ms
 sirius::Stress|us|phase_fac                                         2      52.68 ms       0.06     100.00      26.34 ms     778.38 us      51.90 ms
 sirius::Density::update                                             2      41.32 ms       0.04     100.00      20.66 ms      17.92 ms      23.40 ms
 sirius::Density::generate_pseudo_core_charge_density                2      40.26 ms       0.04     100.00      20.13 ms      17.39 ms      22.86 ms
 sirius::K_point::generate_atomic_wave_functions                     2      38.81 ms       0.04     100.00      19.41 ms      19.10 ms      19.72 ms
 sirius::Beta_projectors_strain_deriv::generate_pw_coefs_t           1      38.74 ms       0.04     100.00      38.74 ms      38.74 ms      38.74 ms
 sirius::Stress|vloc                                                 1      35.89 ms       0.04     100.00      35.89 ms      35.89 ms      35.89 ms
 sirius::Beta_projectors_base::prepare                              36      35.81 ms       0.04     100.00       7.37 us       3.65 us      26.78 ms
 sirius::Potential::update                                           1      35.53 ms       0.04     100.00      35.53 ms      35.53 ms      35.53 ms
 sirius::Potential::generate_local_potential                         1      34.47 ms       0.04     100.00      34.47 ms      34.47 ms      34.47 ms
 sirius::K_point_set::find_band_occupancies                         15      32.20 ms       0.03     100.00       1.80 ms       1.63 ms       3.30 ms
 sirius::K_point_set::initialize                                     1      22.36 ms       0.02     100.00      22.36 ms      22.36 ms      22.36 ms
 sirius::K_point::initialize                                         2      22.04 ms       0.02     100.00      11.02 ms       9.76 ms      12.28 ms
 sirius::Q_operator::initialize                                     17      21.79 ms       0.02     100.00       1.28 ms       1.26 ms       1.31 ms
 sirius::Stress|har                                                  1      20.08 ms       0.02     100.00      20.08 ms      20.08 ms      20.08 ms
 sirius::Periodic_function::add                                     32      18.77 ms       0.02     100.00     591.09 us     524.79 us     634.53 us
 sirius::Density::mixer_input                                       15      15.88 ms       0.02     100.00       1.06 ms       1.03 ms       1.08 ms
 sirius::Augmentation_operator_gvec_deriv::prepare                   2      15.02 ms       0.02     100.00       7.51 ms       6.54 ms       8.48 ms
 sirius::Unit_cell::update                                           2      13.59 ms       0.01     100.00       6.80 ms       6.60 ms       6.99 ms
 sirius::K_point::update                                             2      13.32 ms       0.01     100.00       6.66 ms       5.56 ms       7.76 ms
 sirius::Simulation_context::make_periodic_function                  7      12.96 ms       0.01     100.00       1.10 ms     791.28 us       3.20 ms
 sirius::Unit_cell::get_symmetry                                     2      11.31 ms       0.01     100.00       5.66 ms       5.57 ms       5.74 ms
 sirius::Crystal_symmetry                                            2      11.21 ms       0.01     100.00       5.60 ms       5.51 ms       5.70 ms
 sirius::Beta_projectors                                             2      11.20 ms       0.01     100.00       5.60 ms       4.52 ms       6.68 ms
 sirius::D_operator::initialize                                     17      11.14 ms       0.01     100.00     655.29 us     648.60 us     665.73 us
 sirius::K_point::generate_gkvec                                     2       7.91 ms       0.01     100.00       3.96 ms       3.81 ms       4.11 ms
 sirius::Unit_cell::initialize                                       1       7.37 ms       0.01     100.00       7.37 ms       7.37 ms       7.37 ms
 sirius::Beta_projectors::generate_pw_coefs_t                        2       6.98 ms       0.01     100.00       3.49 ms       3.12 ms       3.86 ms
 sirius::find_sym_atom                                              96       5.68 ms       0.01     100.00      58.57 us      57.75 us      79.97 us
 sirius::K_point_set::sync_band                                     30       5.58 ms       0.01     100.00     112.63 us      33.34 us       1.65 ms
 sirius::Crystal_symmetry|spg                                        2       4.96 ms       0.01     100.00       2.48 ms       2.43 ms       2.53 ms
 sirius::Stress|kin                                                  1       4.78 ms       0.01     100.00       4.78 ms       4.78 ms       4.78 ms
 sirius::Simulation_context::init_atoms_to_grid_idx                  1       3.26 ms       0.00     100.00       3.26 ms       3.26 ms       3.26 ms
 sirius::Hamiltonian_k                                              17       2.43 ms       0.00     100.00     140.20 us     124.29 us     183.88 us
 sirius::Local_operator::prepare_k                                  17       2.23 ms       0.00     100.00     129.04 us     114.32 us     166.02 us
 sirius::Unit_cell::find_nearest_neighbours                          2       2.22 ms       0.00     100.00       1.11 ms       1.01 ms       1.21 ms
 sirius::Non_local_operator                                         34       1.98 ms       0.00     100.00      54.43 us      29.80 us      89.38 us
 ffts                                                                1     927.08 us       0.00     100.00     927.08 us     927.08 us     927.08 us
 wfcinit                                                             1     731.88 us       0.00     100.00     731.88 us     731.88 us     731.88 us
 sirius::Force::symmetrize                                           6     346.07 us       0.00     100.00      49.51 us      41.57 us      94.61 us
 sirius::Atom_type::init                                             2     267.01 us       0.00     100.00     133.50 us      98.39 us     168.62 us
 sddk::matrix_storage::remap_forward                                86     228.19 us       0.00     100.00       2.40 us       1.14 us      14.74 us
 sirius::Augmentation_operator_gvec_deriv::generate_pw_coeffs        6     223.31 us       0.00     100.00      33.48 us      25.84 us      67.51 us
 sirius::Simulation_context::init_comm                               1     107.58 us       0.00     100.00     107.58 us     107.58 us     107.58 us
 sirius::Crystal_symmetry|mag                                        2      56.36 us       0.00     100.00      28.18 us      23.22 us      33.14 us
 sddk::wf_inner|scale_back                                         196      54.97 us       0.00     100.00     231.00 ns     120.00 ns       6.18 us
 sirius::K_point::K_point                                            8      43.94 us       0.00     100.00       5.06 us       4.45 us       8.29 us
 sddk::wf_inner|scale                                              196      40.09 us       0.00     100.00      80.50 ns      46.00 ns      10.85 us
 sddk::matrix_storage::remap_backward                               71      37.74 us       0.00     100.00     540.00 ns     194.00 ns       1.66 us
 sirius::Beta_projectors_base::dismiss                              36      17.92 us       0.00     100.00     416.50 ns     304.00 ns       1.38 us
 sirius::Potential::generate_PAW_effective_potential                16       2.74 us       0.00     100.00     178.50 ns     108.00 ns     209.00 ns
 qe|punch                                                            1       1.11 us       0.00     100.00       1.11 us       1.11 us       1.11 us
 qe|paw_potential                                                    1     939.00 ns       0.00     100.00     939.00 ns     939.00 ns     939.00 ns
 qe|paw_becsum                                                       1     890.00 ns       0.00     100.00     890.00 ns     890.00 ns     890.00 ns

=====================================================================================================================================================
Note: The following floating-point exceptions are signalling: IEEE_UNDERFLOW_FLAG IEEE_DENORMAL
Note: The following floating-point exceptions are signalling: IEEE_UNDERFLOW_FLAG IEEE_DENORMAL
Note: The following floating-point exceptions are signalling: IEEE_UNDERFLOW_FLAG IEEE_DENORMAL
Note: The following floating-point exceptions are signalling: IEEE_UNDERFLOW_FLAG IEEE_DENORMAL


Batch Job Summary Report (version 21.01.1) for Job "test_scf" (34792658) on daint

Job information (1/3)
-----------------------------------------------------------------------------------------------------
             Submit            Eligible               Start                 End    Elapsed Time limit
------------------- ------------------- ------------------- ------------------- ---------- ----------
2021-11-06T12:57:25 2021-11-06T12:57:25 2021-11-06T12:57:26 2021-11-06T12:59:10   00:01:44   00:40:00
-----------------------------------------------------------------------------------------------------

Job information (2/3)
-------------------------------------------------------------
    Username      Account    Partition   NNodes        Energy
------------ ------------ ------------ -------- -------------
      antonk      csstaff       normal        4     68.793 kJ

Job information (3/3) - GPU utilization data
----------------------------------------------------
   Node name       Usage      Max mem Execution time
------------ ----------- ------------ --------------
    nid03193        60 %     8485 MiB       00:01:33
    nid03192        61 %     8489 MiB       00:01:33
    nid03194        62 %     8497 MiB       00:01:33
    nid03191        60 %     8485 MiB       00:01:33

