
     Program PWSCF v.6.1 starts on 25Sep2017 at 13:21:14 

     This program is part of the open-source Quantum ESPRESSO suite
     for quantum simulation of materials; please cite
         "P. Giannozzi et al., J. Phys.:Condens. Matter 21 395502 (2009);
          URL http://www.quantum-espresso.org", 
     in publications or presentations arising from this work. More details at
     http://www.quantum-espresso.org/quote

     Parallel version (MPI & OpenMP), running on     144 processor cores
     Number of MPI processes:                16
     Threads/MPI process:                     9
     K-points division:     npool     =       4
     R & G space division:  proc/nbgrp/npool/nimage =       4
     Reading input from pw.in
     Message from routine read_cards :
     DEPRECATED: no units specified in CELL_PARAMETERS card
SIRIUS 4.8, git hash: 254b482b5c8fe0c26b0b4a747548b4baa50a6567

     Current dimensions of program PWSCF are:
     Max number of different atomic species (ntypx) = 10
     Max number of k-points (npk) =  40000
     Max angular momentum in pseudopotentials (lmaxx) =  3

     Subspace diagonalization in iterative solution of the eigenvalue problem:
     one sub-group per band group will be used
     custom distributed-memory algorithm (size of sub-group:  2*  2 procs)


   Info: using nr1, nr2, nr3 values from input

     Parallelization info
     --------------------
     sticks:   dense  smooth     PW     G-vecs:    dense   smooth      PW
     Min        3357    1344    364               292071    73976   10462
     Max        3358    1345    365               292074    73979   10465
     Sum       13429    5377   1457              1168287   295907   41851



     bravais-lattice index     =            0
     lattice parameter (alat)  =       1.0000  a.u.
     unit-cell volume          =    8646.7719 (a.u.)^3
     number of atoms/cell      =           64
     number of atomic types    =            2
     number of electrons       =       266.00
     number of Kohn-Sham states=          160
     kinetic-energy cutoff     =      40.0000  Ry
     charge density cutoff     =     400.0000  Ry
     convergence threshold     =      1.0E-11
     mixing beta               =       0.7000
     number of iterations used =            8  plain     mixing
     Exchange-correlation      = SLA  PZ   NOGX NOGC ( 1  1  0  0 0 0)

     celldm(1)=   1.000000  celldm(2)=   0.000000  celldm(3)=   0.000000
     celldm(4)=   0.000000  celldm(5)=   0.000000  celldm(6)=   0.000000

     crystal axes: (cart. coord. in units of alat)
               a(1) = (  20.525071   0.000000   0.000000 )  
               a(2) = (   0.000000  20.525071   0.000000 )  
               a(3) = (   0.000000   0.000000  20.525071 )  

     reciprocal axes: (cart. coord. in units 2 pi/alat)
               b(1) = (  0.048721  0.000000  0.000000 )  
               b(2) = (  0.000000  0.048721  0.000000 )  
               b(3) = (  0.000000  0.000000  0.048721 )  


     PseudoPot. # 1 for Ge read from file:
     ./ge_lda_v1.4.uspp.F.UPF
     MD5 check sum: bf9d52b59cc8a669818bb2b52e0c2ba0
     Pseudo is Ultrasoft + core correction, Zval = 14.0
     Generated by new atomic code, or converted to UPF format
     Using radial grid of  873 points,  6 beta functions with: 
                l(1) =   0
                l(2) =   0
                l(3) =   1
                l(4) =   1
                l(5) =   2
                l(6) =   2
     Q(r) pseudized with  8 coefficients,  rinner =    1.400   1.400   1.400
                                                       1.400   1.400

     PseudoPot. # 2 for Si read from file:
     ./si_lda_v1.uspp.F.UPF
     MD5 check sum: b5ade7b37ee992b02096e360e546dc2d
     Pseudo is Ultrasoft + core correction, Zval =  4.0
     Generated by new atomic code, or converted to UPF format
     Using radial grid of  899 points,  6 beta functions with: 
                l(1) =   0
                l(2) =   0
                l(3) =   1
                l(4) =   1
                l(5) =   2
                l(6) =   2
     Q(r) pseudized with  8 coefficients,  rinner =    0.900   0.900   0.900
                                                       0.900   0.900

     atomic species   valence    mass     pseudopotential
        Ge            14.00    72.61000     Ge( 1.00)
        Si             4.00    28.08550     Si( 1.00)

     24 Sym. Ops. (no inversion) found



   Cartesian axes

     site n.     atom                  positions (a.u.)
         1           Ge  tau(   1) = (   0.0000000   0.0000000   0.0000000  )
         2           Si  tau(   2) = (   0.0000000   0.0000000  10.2625355  )
         3           Si  tau(   3) = (   0.0000000  10.2625355   0.0000000  )
         4           Si  tau(   4) = (   0.0000000  10.2625355  10.2625355  )
         5           Si  tau(   5) = (  10.2625355   0.0000000   0.0000000  )
         6           Si  tau(   6) = (  10.2625355   0.0000000  10.2625355  )
         7           Si  tau(   7) = (  10.2625355  10.2625355   0.0000000  )
         8           Si  tau(   8) = (  10.2625355  10.2625355  10.2625355  )
         9           Si  tau(   9) = (   0.0000000   5.1312678   5.1312678  )
        10           Si  tau(  10) = (   0.0000000   5.1312678  15.3938033  )
        11           Si  tau(  11) = (   0.0000000  15.3938033   5.1312678  )
        12           Si  tau(  12) = (   0.0000000  15.3938033  15.3938033  )
        13           Si  tau(  13) = (  10.2625355   5.1312678   5.1312678  )
        14           Si  tau(  14) = (  10.2625355   5.1312678  15.3938033  )
        15           Si  tau(  15) = (  10.2625355  15.3938033   5.1312678  )
        16           Si  tau(  16) = (  10.2625355  15.3938033  15.3938033  )
        17           Si  tau(  17) = (   5.1312678   0.0000000   5.1312678  )
        18           Si  tau(  18) = (   5.1312678   0.0000000  15.3938033  )
        19           Si  tau(  19) = (   5.1312678  10.2625355   5.1312678  )
        20           Si  tau(  20) = (   5.1312678  10.2625355  15.3938033  )
        21           Si  tau(  21) = (  15.3938033   0.0000000   5.1312678  )
        22           Si  tau(  22) = (  15.3938033   0.0000000  15.3938033  )
        23           Si  tau(  23) = (  15.3938033  10.2625355   5.1312678  )
        24           Si  tau(  24) = (  15.3938033  10.2625355  15.3938033  )
        25           Si  tau(  25) = (   5.1312678   5.1312678   0.0000000  )
        26           Si  tau(  26) = (   5.1312678   5.1312678  10.2625355  )
        27           Si  tau(  27) = (   5.1312678  15.3938033   0.0000000  )
        28           Si  tau(  28) = (   5.1312678  15.3938033  10.2625355  )
        29           Si  tau(  29) = (  15.3938033   5.1312678   0.0000000  )
        30           Si  tau(  30) = (  15.3938033   5.1312678  10.2625355  )
        31           Si  tau(  31) = (  15.3938033  15.3938033   0.0000000  )
        32           Si  tau(  32) = (  15.3938033  15.3938033  10.2625355  )
        33           Si  tau(  33) = (   7.6969016   7.6969016   2.5656339  )
        34           Si  tau(  34) = (   7.6969016   7.6969016  12.8281694  )
        35           Si  tau(  35) = (   7.6969016  17.9594371   2.5656339  )
        36           Si  tau(  36) = (   7.6969016  17.9594371  12.8281694  )
        37           Si  tau(  37) = (  17.9594371   7.6969016   2.5656339  )
        38           Si  tau(  38) = (  17.9594371   7.6969016  12.8281694  )
        39           Si  tau(  39) = (  17.9594371  17.9594371   2.5656339  )
        40           Si  tau(  40) = (  17.9594371  17.9594371  12.8281694  )
        41           Si  tau(  41) = (   7.6969016   2.5656339   7.6969016  )
        42           Si  tau(  42) = (   7.6969016   2.5656339  17.9594371  )
        43           Si  tau(  43) = (   7.6969016  12.8281694   7.6969016  )
        44           Si  tau(  44) = (   7.6969016  12.8281694  17.9594371  )
        45           Si  tau(  45) = (  17.9594371   2.5656339   7.6969016  )
        46           Si  tau(  46) = (  17.9594371   2.5656339  17.9594371  )
        47           Si  tau(  47) = (  17.9594371  12.8281694   7.6969016  )
        48           Si  tau(  48) = (  17.9594371  12.8281694  17.9594371  )
        49           Si  tau(  49) = (   2.5656339   7.6969016   7.6969016  )
        50           Si  tau(  50) = (   2.5656339   7.6969016  17.9594371  )
        51           Si  tau(  51) = (   2.5656339  17.9594371   7.6969016  )
        52           Si  tau(  52) = (   2.5656339  17.9594371  17.9594371  )
        53           Si  tau(  53) = (  12.8281694   7.6969016   7.6969016  )
        54           Si  tau(  54) = (  12.8281694   7.6969016  17.9594371  )
        55           Si  tau(  55) = (  12.8281694  17.9594371   7.6969016  )
        56           Si  tau(  56) = (  12.8281694  17.9594371  17.9594371  )
        57           Si  tau(  57) = (   2.5656339   2.5656339   2.5656339  )
        58           Si  tau(  58) = (   2.5656339   2.5656339  12.8281694  )
        59           Si  tau(  59) = (   2.5656339  12.8281694   2.5656339  )
        60           Si  tau(  60) = (   2.5656339  12.8281694  12.8281694  )
        61           Si  tau(  61) = (  12.8281694   2.5656339   2.5656339  )
        62           Si  tau(  62) = (  12.8281694   2.5656339  12.8281694  )
        63           Si  tau(  63) = (  12.8281694  12.8281694   2.5656339  )
        64           Si  tau(  64) = (  12.8281694  12.8281694  12.8281694  )

     number of k points=     4  gaussian smearing, width (Ry)=  0.0100
                       cart. coord. in units 2pi/alat
        k(    1) = (   0.0000000   0.0000000   0.0000000), wk =   0.2500000
        k(    2) = (   0.0000000   0.0000000  -0.0243605), wk =   0.7500000
        k(    3) = (   0.0000000  -0.0243605  -0.0243605), wk =   0.7500000
        k(    4) = (  -0.0243605  -0.0243605  -0.0243605), wk =   0.2500000

     Dense  grid:  1168287 G-vectors     FFT dimensions: ( 135, 135, 135)

     Smooth grid:   295907 G-vectors     FFT dimensions: (  90,  90,  90)

     Estimated max dynamical RAM per process >       1.43 GB

     Estimated total dynamical RAM >      22.91 GB

     Self-consistent Calculation

     iteration #  1     ecut=    40.00 Ry     beta=0.70
     ethr =  1.00E-02
Average number of iterations:     3.250000
     Ef =   0.4391091222649388

     total energy              =    -819.63132303 Ry
     Harris-Foulkes estimate   =       0.00000000 Ry
     estimated scf accuracy    <       1.82898925 Ry

     iteration #  2     ecut=    40.00 Ry     beta=0.70
     ethr =  6.88E-04
Average number of iterations:     2.000000
     Ef =   0.4626923931963526

     total energy              =    -819.75643202 Ry
     Harris-Foulkes estimate   =       0.00000000 Ry
     estimated scf accuracy    <       0.06750521 Ry

     iteration #  3     ecut=    40.00 Ry     beta=0.70
     ethr =  2.54E-05
Average number of iterations:    10.500000
     Ef =   0.4648651509662218

     total energy              =    -819.77500321 Ry
     Harris-Foulkes estimate   =       0.00000000 Ry
     estimated scf accuracy    <       0.00868962 Ry

     iteration #  4     ecut=    40.00 Ry     beta=0.70
     ethr =  3.27E-06
Average number of iterations:     9.500000
     Ef =   0.4641285380758584

     total energy              =    -819.77266283 Ry
     Harris-Foulkes estimate   =       0.00000000 Ry
     estimated scf accuracy    <       0.04952202 Ry

     iteration #  5     ecut=    40.00 Ry     beta=0.70
     ethr =  3.27E-06
Average number of iterations:     6.250000
     Ef =   0.4638900225503840

     total energy              =    -819.77954178 Ry
     Harris-Foulkes estimate   =       0.00000000 Ry
     estimated scf accuracy    <       0.00186839 Ry

     iteration #  6     ecut=    40.00 Ry     beta=0.70
     ethr =  7.02E-07
Average number of iterations:     2.250000
     Ef =   0.4639507251981816

     total energy              =    -819.77985228 Ry
     Harris-Foulkes estimate   =       0.00000000 Ry
     estimated scf accuracy    <       0.00018184 Ry

     iteration #  7     ecut=    40.00 Ry     beta=0.70
     ethr =  6.84E-08
Average number of iterations:     3.000000
     Ef =   0.4640316040258757

     total energy              =    -819.77987883 Ry
     Harris-Foulkes estimate   =       0.00000000 Ry
     estimated scf accuracy    <       0.00001575 Ry

     iteration #  8     ecut=    40.00 Ry     beta=0.70
     ethr =  5.92E-09
Average number of iterations:     3.000000
     Ef =   0.4640750997924449

     total energy              =    -819.77988215 Ry
     Harris-Foulkes estimate   =       0.00000000 Ry
     estimated scf accuracy    <       0.00000136 Ry

     iteration #  9     ecut=    40.00 Ry     beta=0.70
     ethr =  5.13E-10
Average number of iterations:     3.000000
     Ef =   0.4640926061527577

     total energy              =    -819.77988257 Ry
     Harris-Foulkes estimate   =       0.00000000 Ry
     estimated scf accuracy    <       0.00000018 Ry

     iteration # 10     ecut=    40.00 Ry     beta=0.70
     ethr =  6.75E-11
Average number of iterations:     3.000000
     Ef =   0.4640952401797034

     total energy              =    -819.77988259 Ry
     Harris-Foulkes estimate   =       0.00000000 Ry
     estimated scf accuracy    <       0.00000006 Ry

     iteration # 11     ecut=    40.00 Ry     beta=0.70
     ethr =  2.37E-11
Average number of iterations:     2.000000
     Ef =   0.4640922412307423

     total energy              =    -819.77988259 Ry
     Harris-Foulkes estimate   =       0.00000000 Ry
     estimated scf accuracy    <          4.4E-09 Ry

     iteration # 12     ecut=    40.00 Ry     beta=0.70
     ethr =  1.66E-12
Average number of iterations:     2.500000
     Ef =   0.4640916543820717

     total energy              =    -819.77988259 Ry
     Harris-Foulkes estimate   =       0.00000000 Ry
     estimated scf accuracy    <          1.1E-10 Ry

     iteration # 13     ecut=    40.00 Ry     beta=0.70
     ethr =  1.00E-13
Average number of iterations:     1.000000
     Ef =   0.4640915960885547

     total energy              =    -819.77988259 Ry
     Harris-Foulkes estimate   =       0.00000000 Ry
     estimated scf accuracy    <          2.3E-11 Ry

     iteration # 14     ecut=    40.00 Ry     beta=0.70
     ethr =  1.00E-13
Average number of iterations:     1.000000
     Ef =   0.4640915786297620
     last descf =  -0.1949184731E-04

     End of self-consistent calculation

     End of self-consistent calculation

          k = 0.0000 0.0000 0.0000 ( 37073 PWs)   bands (ev):

   -18.1975 -18.1975 -18.1975 -18.1673 -18.1673  -5.9342  -4.9975  -4.8230
    -4.8230  -4.8230  -4.8210  -4.8210  -4.1146  -3.8624  -3.8624  -3.8624
    -3.8581  -3.8581  -3.8581  -3.8579  -3.8579  -3.8579  -3.8579  -3.8579
    -3.6100  -3.5665  -3.5665  -3.5665  -1.9432  -1.7638  -1.7638  -1.7638
    -1.7607  -1.7607  -1.6824  -1.5974  -1.5974  -1.5974  -1.5946  -1.5946
    -1.5946  -1.5939  -1.5939  -1.5939  -1.5937  -1.5937  -0.9553  -0.9378
    -0.9378  -0.9378   0.4470   0.5643   0.5643   0.5643   0.5678   0.5678
     0.5678   0.5688   0.5688   0.5712   0.5712   0.5712   2.1719   2.1719
     2.1719   2.1816   2.1816   2.1816   2.1825   2.1825   2.1825   2.1825
     2.1855   2.1855   2.2670   2.2727   2.2727   2.2727   2.2810   2.2810
     2.2810   2.2829   2.2829   2.2839   2.2839   2.2839   2.4693   2.5273
     2.5273   2.5309   2.5309   2.5309   3.2047   3.2047   3.2047   3.2049
     3.2049   3.2049   4.1649   4.1649   4.1649   4.1665   4.1665   4.1665
     4.1686   4.1686   4.1686   4.1773   4.1773   4.1773   4.7316   4.7316
     4.7316   4.7340   4.7340   4.7340   4.7341   4.7375   4.7375   4.7408
     4.7408   4.7408   4.8624   4.8624   4.8624   4.8656   4.8656   4.8713
     4.8713   4.8713   6.0689   6.0689   6.0689   6.6460   6.6805   6.6805
     6.6805   6.6817   6.6817   7.0850   7.1103   7.1103   7.1181   7.1181
     7.1181   7.4324   7.4911   7.4911   7.4911   8.3766   8.4253   8.4253
     8.4253   8.4278   8.4278   8.4278   8.4501   8.4501   8.4501   8.4507

          k = 0.0000 0.0000-0.0244 ( 36906 PWs)   bands (ev):

   -18.1975 -18.1975 -18.1975 -18.1673 -18.1673  -5.6930  -5.6304  -4.7871
    -4.5767  -4.5767  -4.5750  -4.5737  -4.5733  -4.5733  -4.5728  -3.8959
    -3.7297  -3.7297  -3.7272  -3.7267  -3.7265  -3.7265  -3.7265  -3.5312
    -3.5121  -2.9097  -2.7889  -2.7845  -2.7845  -2.7837  -2.7837  -2.7837
    -2.7832  -1.7975  -1.6865  -1.6865  -1.6819  -1.6814  -1.6814  -1.6814
    -1.6813  -0.6345  -0.5193  -0.5193  -0.5159  -0.5159  -0.5157  -0.5155
    -0.5153  -0.3741  -0.3453  -0.3431  -0.3431  -0.3369  -0.3366  -0.3357
    -0.3357   0.2859   0.3059   1.6807   1.7542   1.7542   1.7563   1.7568
     1.7589   1.7612   1.7612   1.7969   1.7969   1.7989   1.8036   1.8037
     1.8037   1.8039   1.8057   2.6206   2.6206   2.6208   2.6248   2.6253
     2.6273   2.6273   2.6296   3.3223   3.3238   3.3266   3.3266   3.3282
     3.3310   3.3347   3.3347   3.4477   3.4477   3.4533   3.4533   3.4610
     3.4621   3.4621   3.4625   3.4645   3.4659   3.4659   3.4677   3.5655
     3.5796   3.5796   3.5824   3.5840   3.5857   3.5857   3.5860   4.6240
     4.6266   4.6266   4.6285   4.6313   4.6313   4.6323   4.6403   4.6950
     4.7184   4.7934   4.7970   4.7970   4.7970   4.7970   4.8004   4.8038
     4.8038   5.2510   5.2510   5.2614   5.2614   6.5770   6.5911   7.5049
     7.5097   7.9254   7.9432   7.9450   7.9450   7.9479   7.9647   7.9665
     7.9665   8.0107   8.0236   8.2750   8.3280   8.3280   8.3301   8.3322
     8.3339   8.3339   8.3713   8.4354   8.4401   8.4406   8.4406   8.4452

          k = 0.0000-0.0244-0.0244 ( 37020 PWs)   bands (ev):

   -18.1975 -18.1975 -18.1975 -18.1673 -18.1673  -5.4837  -5.3634  -5.3634
    -5.3623  -4.5408  -4.3513  -4.3467  -4.3467  -4.3455  -4.3455  -4.3455
    -4.3453  -3.5007  -3.3152  -3.3152  -3.3097  -3.3097  -3.3096  -3.3096
    -3.3096  -3.1178  -3.0310  -3.0310  -3.0291  -3.0289  -3.0287  -3.0283
    -3.0283  -2.2279  -2.1717  -2.1704  -2.1704  -1.2336  -1.1779  -1.1729
    -1.1729  -0.8135  -0.7499  -0.7499  -0.7478  -0.7430  -0.7425  -0.7420
    -0.7420  -0.0065   0.0871   0.0884   0.0884   0.0886   0.0886   0.0889
     0.0892   0.7039   0.7523   0.7523   0.7537   0.7574   0.7589   0.7589
     0.7620   1.7249   1.7249   1.7260   1.7308   2.5668   2.5838   2.5839
     2.5839   2.5869   2.5906   2.5906   2.5907   2.6737   2.6737   2.6770
     2.6777   2.6777   2.6799   2.6800   2.6800   3.2840   3.2871   3.2878
     3.2878   3.2900   3.2900   3.2911   3.2919   3.3324   3.3579   3.3651
     3.3651   3.6322   3.6322   3.6342   3.6358   3.8900   3.8900   3.8941
     3.8945   3.8952   3.8952   3.8978   3.8990   4.1919   4.2095   4.2103
     4.2103   4.2129   4.2134   4.2134   4.2217   4.4173   4.4184   4.4184
     4.4302   4.4706   4.4706   4.4715   4.4733   4.4734   4.4748   4.4824
     4.4824   5.7695   5.7708   5.7812   5.7812   7.1675   7.1675   7.1687
     7.1889   7.9055   7.9257   7.9279   7.9279   7.9337   7.9427   7.9504
     7.9504   8.2027   8.2229   8.2239   8.2239   8.2248   8.2295   8.2295
     8.2658   8.6093   8.6165   8.6181   8.6181   8.6189   8.6366   8.6366

          k =-0.0244-0.0244-0.0244 ( 37056 PWs)   bands (ev):

   -18.1975 -18.1975 -18.1975 -18.1673 -18.1673  -5.3169  -5.1049  -5.1049
    -5.1049  -5.1030  -5.1026  -5.1026  -5.1026  -3.6155  -3.1919  -3.1919
    -3.1919  -3.1838  -3.1838  -3.1838  -3.1837  -3.1837  -3.1834  -3.1834
    -3.1834  -3.1833  -3.1830  -3.1830  -3.1830  -3.1828  -3.1828  -3.1828
    -3.1827  -3.1827  -3.1827  -3.1827  -3.1827  -0.5915  -0.3471  -0.3471
    -0.3471  -0.3349  -0.3349  -0.3349  -0.3344  -0.3343  -0.3343  -0.3343
    -0.3343  -0.3343  -0.3342  -0.3342  -0.3342  -0.3335  -0.3335  -0.3334
    -0.3334  -0.3334  -0.3319  -0.3319  -0.3319   2.0597   2.1102   2.1102
     2.1102   2.1132   2.1186   2.1186   2.1186   2.4670   2.4882   2.4882
     2.4882   2.5017   2.5017   2.5017   2.5021   2.5021   2.5021   2.5025
     2.5025   2.5025   2.5027   2.5027   2.5027   2.5027   2.5027   2.5028
     2.5078   2.5078   2.5078   2.5083   2.5083   3.8482   3.8482   3.8482
     3.8501   3.8501   3.8501   3.8540   3.8540   3.8540   3.8547   3.8548
     3.8548   3.8548   3.8552   3.8552   3.8552   3.8552   3.8552   3.8553
     3.8575   3.8575   3.8612   3.8612   3.8612   5.2996   5.2996   5.2996
     5.3007   5.3007   5.3007   5.3012   5.3012   5.3016   5.3016   5.3016
     5.3026   5.3026   5.3245   5.3245   5.3245   7.3964   7.4862   7.4862
     7.4862   7.4878   7.4890   7.4890   7.4890   7.4893   7.4893   7.4894
     7.4894   7.4894   7.4898   7.4898   7.4898   7.4904   7.4904   7.4904
     7.5324   7.5324   7.5324   7.5393   7.5393   7.9110   7.9784   7.9823

     the Fermi energy is     6.3143 ev

!    total energy              =    -819.77988259 Ry
     Harris-Foulkes estimate   =       0.00000000 Ry
     estimated scf accuracy    <          5.2E-12 Ry

     The total energy is the sum of the following terms:

     one-electron contribution =     -48.97842252 Ry
     hartree contribution      =     151.40437451 Ry
     xc contribution           =    -328.89323651 Ry
     ewald contribution        =    -593.31242748 Ry
     band sum                  =       5.06622329 Ry
     deband                    =     -54.04464581 Ry
     smearing contrib. (-TS)   =      -0.00017059 Ry

     convergence has been achieved in  14 iterations
--------------------------------------------------------------------------------------------------------------------------------------------
name                                                                 count      total        min        max    average    self (%)
--------------------------------------------------------------------------------------------------------------------------------------------
Eigenproblem_elpa1|diag                                           :     61     2.7480     0.0099     0.0980     0.0450     100.00
Eigenproblem_elpa:transform_back                                  :     15     0.0189     0.0010     0.0018     0.0013     100.00
Eigenproblem_elpa:transform_to_standard                           :     15     0.0605     0.0030     0.0092     0.0040     100.00
qe|electrons                                                      :      1    39.4787    39.4787    39.4787    39.4787       0.01
qe|electrons|init                                                 :      1     1.7208     1.7208     1.7208     1.7208       6.39
qe|electrons|scf                                                  :      1    37.7242    37.7242    37.7242    37.7242       1.47
qe|init_run|hinit0                                                :      1     0.7598     0.7598     0.7598     0.7598       0.00
qe|init_run|hinit0|struc_fact                                     :      1     0.7527     0.7527     0.7527     0.7527     100.00
qe|mix                                                            :     14     0.7921     0.0118     0.0678     0.0566     100.00
qe|run_pwscf                                                      :      1    41.8865    41.8865    41.8865    41.8865       1.05
qe|run_pwscf|electrons                                            :      1    39.4787    39.4787    39.4787    39.4787       0.00
qe|run_pwscf|init_run                                             :      1     1.1994     1.1994     1.1994     1.1994      36.65
qe|run_pwscf|setup                                                :      1     0.0124     0.0124     0.0124     0.0124     100.00
qe|run_pwscf|setup_sirius                                         :      1     0.7577     0.7577     0.7577     0.7577       0.62
qe|v_ha                                                           :     15     0.3052     0.0199     0.0228     0.0203     100.00
qe|v_xc                                                           :     15     0.1239     0.0079     0.0112     0.0083     100.00
qe|veff                                                           :     14     1.7077     0.1186     0.1332     0.1220      22.38
sddk::FFT3D::FFT3D                                                :      2     0.0205     0.0055     0.0150     0.0103     100.00
sddk::FFT3D::transform                                            :   3510     4.5590     0.0011     0.0573     0.0013       0.50
sddk::FFT3D::transform_xy                                         :   3510     3.7946     0.0010     0.0439     0.0011     100.00
sddk::FFT3D::transform_z                                          :   3510     0.7416     0.0001     0.0080     0.0002       0.99
sddk::FFT3D::transform_z_serial                                   :   3510     0.5288     0.0001     0.0009     0.0002     100.00
sddk::FFT3D::transform_z|comm                                     :     49     0.2055     0.0032     0.0072     0.0042     100.00
sddk::Gvec::find_gvec_shells                                      :      3     0.0724     0.0033     0.0565     0.0241     100.00
sddk::Gvec::init                                                  :      3     0.1182     0.0055     0.0905     0.0394      38.72
sddk::matrix_storage::matrix_storage                              :     89     0.0818     0.0000     0.0179     0.0009     100.00
sddk::matrix_storage::remap_backward                              :     61     0.4533     0.0003     0.0202     0.0074     100.00
sddk::matrix_storage::remap_forward                               :     75     1.0438     0.0002     0.0573     0.0139     100.00
sddk::remap_gvec_to_shells|init                                   :      1     0.0257     0.0257     0.0257     0.0257     100.00
sddk::wave_functions::inner                                       :    168     1.4333     0.0006     0.0259     0.0085     100.00
sddk::wave_functions::orthogonalize                               :     46     2.8105     0.0127     0.1407     0.0611       7.67
sddk::wave_functions::orthogonalize|potrf                         :     46     0.0216     0.0000     0.0024     0.0005     100.00
sddk::wave_functions::orthogonalize|trtri                         :     46     0.0111     0.0000     0.0011     0.0002     100.00
sddk::wave_functions::transform                                   :    248     3.4720     0.0004     0.0686     0.0140      89.77
sddk::wave_functions::transform|init                              :    248     0.3551     0.0000     0.0209     0.0014     100.00
sirius::Augmentation_operator::generate_pw_coeffs                 :      2     0.3060     0.1522     0.1538     0.1530     100.00
sirius::Band::apply_h_o                                           :     61    17.9811     0.0806     0.7706     0.2948       0.83
sirius::Band::diag_pseudo_potential                               :     14    25.6522     0.7654     3.9730     1.8323       0.02
sirius::Band::diag_pseudo_potential_davidson                      :     14    25.6277     0.7636     3.9712     1.8305       0.21
sirius::Band::diag_pseudo_potential_davidson|alloc                :     14     0.0144     0.0009     0.0011     0.0010      99.96
sirius::Band::diag_pseudo_potential_davidson|evp                  :     60     2.7871     0.0126     0.0980     0.0465       0.21
sirius::Band::diag_pseudo_potential_davidson|iter                 :     14    25.3646     0.7452     3.9520     1.8118       0.57
sirius::Band::diag_pseudo_potential_davidson|update_phi           :     14     0.4616     0.0172     0.0458     0.0330       0.03
sirius::Band::get_h_diag                                          :     14     0.1017     0.0071     0.0074     0.0073     100.00
sirius::Band::get_o_diag                                          :     14     0.0919     0.0065     0.0068     0.0066     100.00
sirius::Band::initialize_subspace                                 :      1     1.0490     1.0490     1.0490     1.0490       3.47
sirius::Band::initialize_subspace|kp                              :      1     0.9941     0.9941     0.9941     0.9941       1.40
sirius::Band::initialize_subspace|kp|wf                           :      1     0.0161     0.0161     0.0161     0.0161     100.00
sirius::Band::residuals                                           :     60     1.1614     0.0000     0.0569     0.0194       1.75
sirius::Band::residuals_aux                                       :     49     0.1147     0.0002     0.0058     0.0023     100.00
sirius::Band::set_subspace_mtrx                                   :     76     0.8391     0.0021     0.0259     0.0110       0.90
sirius::Band::solve_for_kset                                      :     14    30.4878     0.7794     4.8511     2.1777      15.01
sirius::Beta_projectors_base::generate                            :     75     5.2701     0.0660     0.1479     0.0703     100.00
sirius::Beta_projectors_base::inner                               :     75     3.1475     0.0042     0.0941     0.0420     100.00
sirius::DFT_ground_state::ewald_energy                            :      1     0.0151     0.0151     0.0151     0.0151     100.00
sirius::Density::add_k_point_contribution_dm                      :     14     1.7723     0.1255     0.1288     0.1266       0.53
sirius::Density::add_k_point_contribution_rg                      :     14     0.6816     0.0476     0.0496     0.0487      11.97
sirius::Density::augment                                          :     14     0.7730     0.0537     0.0576     0.0552       0.36
sirius::Density::generate_pseudo_core_charge_density              :      1     0.0966     0.0966     0.0966     0.0966       0.10
sirius::Density::generate_rho_aug                                 :     14     0.7702     0.0535     0.0574     0.0550      24.97
sirius::Density::generate_rho_aug|gemm                            :     28     0.2728     0.0069     0.0126     0.0097     100.00
sirius::Density::generate_rho_aug|phase_fac                       :     28     0.0811     0.0001     0.0058     0.0029     100.00
sirius::Density::generate_rho_aug|sum                             :     28     0.2240     0.0074     0.0085     0.0080     100.00
sirius::Density::generate_valence                                 :     14     3.7031     0.2598     0.2856     0.2645       3.61
sirius::Density::initial_density                                  :      1     0.0616     0.0616     0.0616     0.0616      14.13
sirius::K_point::initialize                                       :      1     0.0203     0.0203     0.0203     0.0203       4.70
sirius::Local_operator::apply_h                                   :     61     5.4074     0.0032     0.2848     0.0886      13.15
sirius::Local_operator::prepare                                   :     30     0.2990     0.0011     0.0738     0.0100      35.88
sirius::Non_local_operator::apply                                 :    122     5.7702     0.0028     0.1207     0.0473     100.00
sirius::Periodic_function::inner                                  :     42     0.0713     0.0004     0.0091     0.0017      56.35
sirius::Potential::Potential                                      :      1     0.1647     0.1647     0.1647     0.1647      13.63
sirius::Potential::generate_D_operator_matrix                     :     15     0.4179     0.0239     0.0710     0.0279     100.00
sirius::Potential::generate_local_potential                       :      1     0.1423     0.1423     0.1423     0.1423       0.08
sirius::Radial_integrals|aug                                      :      1     0.0296     0.0296     0.0296     0.0296     100.00
sirius::Radial_integrals|beta                                     :      2     0.1632     0.0790     0.0842     0.0816     100.00
sirius::Radial_integrals|rho_core_pseudo                          :      1     0.0198     0.0198     0.0198     0.0198     100.00
sirius::Radial_integrals|rho_pseudo                               :      1     0.0191     0.0191     0.0191     0.0191     100.00
sirius::Radial_integrals|vloc                                     :      1     0.1072     0.1072     0.1072     0.1072     100.00
sirius::Simulation_context::initialize                            :      1     0.7327     0.7327     0.7327     0.7327       0.01
sirius::Simulation_context_base::initialize                       :      1     0.4267     0.4267     0.4267     0.4267      15.96
sirius::Simulation_context_base::make_periodic_function           :      3     0.0358     0.0085     0.0186     0.0119     100.00
sirius::Smooth_periodic_function::fft_transform                   :     63     0.8112     0.0029     0.0679     0.0129      41.72
sirius::Smooth_periodic_function::gather_f_pw                     :     46     0.3309     0.0025     0.0666     0.0072     100.00
sirius_api::sirius_get_pw_coeffs                                  :     17     0.2836     0.0151     0.0218     0.0167      55.25
sirius_api::sirius_set_pw_coeffs                                  :     31     0.6762     0.0192     0.0316     0.0218      33.90
--------------------------------------------------------------------------------------------------------------------------------------------
+global_timer (   41.8875s, 0.00 % of self, 100.00 % of total)
|--qe|run_pwscf (   41.8865s, 100.00 %) 
qe|electrons (   39.4787s, 0.01 % of self, 94.25 % of total)
|--qe|electrons|scf (   37.7242s, 95.56 %) 
|--qe|electrons|init (    1.7208s, 4.36 %) 
|--sirius_api::sirius_set_pw_coeffs (    0.0311s, 0.08 %) 
qe|electrons|init (    1.7208s, 6.39 % of self, 4.11 % of total)
|--sirius::Band::initialize_subspace (    1.0490s, 60.96 %) 
|--sirius::Potential::Potential (    0.1647s, 9.57 %) 
|--sirius::Density::generate_pseudo_core_charge_density (    0.0966s, 5.61 %) 
|--sirius::Potential::generate_D_operator_matrix (    0.0710s, 4.13 %) 
|--sirius_api::sirius_set_pw_coeffs (    0.0617s, 3.58 %) 
|--sirius::Density::initial_density (    0.0616s, 3.58 %) 
|--sirius_api::sirius_get_pw_coeffs (    0.0571s, 3.32 %) 
|--qe|v_ha (    0.0228s, 1.33 %) 
|--sirius::DFT_ground_state::ewald_energy (    0.0151s, 0.88 %) 
|--qe|v_xc (    0.0112s, 0.65 %) 
|--sirius::Band::Band (    0.0000s, 0.00 %) 
qe|electrons|scf (   37.7242s, 1.47 % of self, 90.06 % of total)
|--sirius::Band::solve_for_kset (   30.4878s, 80.82 %) 
|--sirius::Density::generate_valence (    3.7031s, 9.82 %) 
|--qe|veff (    1.7077s, 4.53 %) 
|--qe|mix (    0.7921s, 2.10 %) 
|--sirius_api::sirius_get_pw_coeffs (    0.2265s, 0.60 %) 
|--sirius::Smooth_periodic_function::fft_transform (    0.2127s, 0.56 %) 
|--sirius::Periodic_function::inner (    0.0402s, 0.11 %) 
qe|init_run|hinit0 (    0.7598s, 0.00 % of self, 1.81 % of total)
|--qe|init_run|hinit0|struc_fact (    0.7527s, 99.06 %) 
|--qe|init_run|hinit0|init_us_1 (    0.0064s, 0.84 %) 
|--qe|init_run|hinit0|init_igk (    0.0007s, 0.10 %) 
|--qe|init_run|hinit0|init_vloc (    0.0000s, 0.00 %) 
|--qe|init_run|hinit0|setlocal (    0.0000s, 0.00 %) 
|--qe|init_run|hinit0|init_at_1 (    0.0000s, 0.00 %) 
|--qe|init_run|hinit0|set_rhoc (    0.0000s, 0.00 %) 
qe|run_pwscf (   41.8865s, 1.05 % of self, 100.00 % of total)
|--qe|run_pwscf|electrons (   39.4787s, 94.25 %) 
|--qe|run_pwscf|init_run (    1.1994s, 2.86 %) 
|--qe|run_pwscf|setup_sirius (    0.7577s, 1.81 %) 
|--qe|run_pwscf|setup (    0.0124s, 0.03 %) 
|--qe|run_pwscf|punch (    0.0000s, 0.00 %) 
|--qe|run_pwscf|ions (    0.0000s, 0.00 %) 
|--qe|run_pwscf|stress (    0.0000s, 0.00 %) 
|--qe|run_pwscf|forces (    0.0000s, 0.00 %) 
qe|run_pwscf|electrons (   39.4787s, 0.00 % of self, 94.25 % of total)
|--qe|electrons (   39.4787s, 100.00 %) 
qe|run_pwscf|init_run (    1.1994s, 36.65 % of self, 2.86 % of total)
|--qe|init_run|hinit0 (    0.7598s, 63.35 %) 
|--qe|init_run|potinit (    0.0000s, 0.00 %) 
|--qe|init_run|newd (    0.0000s, 0.00 %) 
qe|run_pwscf|setup_sirius (    0.7577s, 0.62 % of self, 1.81 % of total)
|--sirius::Simulation_context::initialize (    0.7327s, 96.70 %) 
|--sirius::K_point::initialize (    0.0203s, 2.68 %) 
|--sirius::K_point_set::add_kpoints (    0.0000s, 0.00 %) 
|--sirius::K_point_set::K_point_set (    0.0000s, 0.00 %) 
qe|veff (    1.7077s, 22.38 % of self, 4.08 % of total)
|--sirius_api::sirius_set_pw_coeffs (    0.5834s, 34.17 %) 
|--sirius::Potential::generate_D_operator_matrix (    0.3470s, 20.32 %) 
|--qe|v_ha (    0.2824s, 16.54 %) 
|--qe|v_xc (    0.1127s, 6.60 %) 
sddk::FFT3D::transform (    4.5590s, 0.50 % of self, 10.88 % of total)
|--sddk::FFT3D::transform_xy (    3.7946s, 83.23 %) 
|--sddk::FFT3D::transform_z (    0.7416s, 16.27 %) 
sddk::FFT3D::transform_z (    0.7416s, 0.99 % of self, 1.77 % of total)
|--sddk::FFT3D::transform_z_serial (    0.5288s, 71.31 %) 
|--sddk::FFT3D::transform_z|comm (    0.2055s, 27.71 %) 
sddk::wave_functions::orthogonalize (    2.8105s, 7.67 % of self, 6.71 % of total)
|--sddk::wave_functions::transform (    1.9606s, 69.76 %) 
|--sddk::wave_functions::inner (    0.6017s, 21.41 %) 
|--sddk::wave_functions::orthogonalize|potrf (    0.0216s, 0.77 %) 
|--sddk::wave_functions::orthogonalize|trtri (    0.0111s, 0.39 %) 
sddk::wave_functions::transform (    3.4720s, 89.77 % of self, 8.29 % of total)
|--sddk::wave_functions::transform|init (    0.3551s, 10.23 %) 
sirius::Band::apply_h_o (   17.9811s, 0.83 % of self, 42.93 % of total)
|--sirius::Non_local_operator::apply (    5.7702s, 32.09 %) 
|--sirius::Local_operator::apply_h (    5.4074s, 30.07 %) 
|--sirius::Beta_projectors_base::generate (    4.3310s, 24.09 %) 
|--sirius::Beta_projectors_base::inner (    2.3238s, 12.92 %) 
sirius::Band::diag_pseudo_potential (   25.6522s, 0.02 % of self, 61.24 % of total)
|--sirius::Band::diag_pseudo_potential_davidson (   25.6277s, 99.90 %) 
|--sirius::Local_operator::prepare (    0.0190s, 0.07 %) 
|--sddk::FFT3D::prepare (    0.0010s, 0.00 %) 
|--sirius::Non_local_operator::Non_local_operator (    0.0000s, 0.00 %) 
sirius::Band::diag_pseudo_potential_davidson (   25.6277s, 0.21 % of self, 61.18 % of total)
|--sirius::Band::diag_pseudo_potential_davidson|iter (   25.3646s, 98.97 %) 
|--sirius::Band::get_h_diag (    0.1017s, 0.40 %) 
|--sirius::Band::get_o_diag (    0.0919s, 0.36 %) 
|--sirius::Band::diag_pseudo_potential_davidson|alloc (    0.0144s, 0.06 %) 
|--sirius::Band::diag_pseudo_potential_davidson|wf (    0.0003s, 0.00 %) 
|--sirius::Beta_projectors_base::dismiss (    0.0000s, 0.00 %) 
sirius::Band::diag_pseudo_potential_davidson|evp (    2.7871s, 0.21 % of self, 6.65 % of total)
|--Eigenproblem_elpa1|diag (    2.7125s, 97.33 %) 
|--Eigenproblem_elpa:transform_to_standard (    0.0513s, 1.84 %) 
|--Eigenproblem_elpa:transform_back (    0.0173s, 0.62 %) 
sirius::Band::diag_pseudo_potential_davidson|iter (   25.3646s, 0.57 % of self, 60.55 % of total)
|--sirius::Band::apply_h_o (   17.2105s, 67.85 %) 
|--sddk::wave_functions::orthogonalize (    2.8105s, 11.08 %) 
|--sirius::Band::diag_pseudo_potential_davidson|evp (    2.7871s, 10.99 %) 
|--sirius::Band::residuals (    1.1614s, 4.58 %) 
|--sirius::Band::set_subspace_mtrx (    0.7881s, 3.11 %) 
|--sirius::Band::diag_pseudo_potential_davidson|update_phi (    0.4616s, 1.82 %) 
sirius::Band::diag_pseudo_potential_davidson|update_phi (    0.4616s, 0.03 % of self, 1.10 % of total)
|--sddk::wave_functions::transform (    0.4615s, 99.97 %) 
sirius::Band::initialize_subspace (    1.0490s, 3.47 % of self, 2.50 % of total)
|--sirius::Band::initialize_subspace|kp (    0.9941s, 94.77 %) 
|--sirius::Local_operator::prepare (    0.0185s, 1.76 %) 
sirius::Band::initialize_subspace|kp (    0.9941s, 1.40 % of self, 2.37 % of total)
|--sirius::Band::apply_h_o (    0.7706s, 77.52 %) 
|--sddk::matrix_storage::matrix_storage (    0.0710s, 7.14 %) 
|--sirius::Band::set_subspace_mtrx (    0.0510s, 5.13 %) 
|--Eigenproblem_elpa1|diag (    0.0355s, 3.57 %) 
|--sddk::wave_functions::transform (    0.0237s, 2.38 %) 
|--sirius::Band::initialize_subspace|kp|wf (    0.0161s, 1.62 %) 
|--Eigenproblem_elpa:transform_to_standard (    0.0092s, 0.92 %) 
|--Eigenproblem_elpa:transform_back (    0.0016s, 0.16 %) 
|--sirius::Local_operator::prepare (    0.0015s, 0.15 %) 
|--sddk::FFT3D::prepare (    0.0000s, 0.00 %) 
|--sirius::Non_local_operator::Non_local_operator (    0.0000s, 0.00 %) 
|--sirius::Beta_projectors_base::prepare (    0.0000s, 0.00 %) 
|--sirius::Beta_projectors_base::dismiss (    0.0000s, 0.00 %) 
sirius::Band::residuals (    1.1614s, 1.75 % of self, 2.77 % of total)
|--sddk::wave_functions::transform (    1.0263s, 88.37 %) 
|--sirius::Band::residuals_aux (    0.1147s, 9.88 %) 
sirius::Band::set_subspace_mtrx (    0.8391s, 0.90 % of self, 2.00 % of total)
|--sddk::wave_functions::inner (    0.8316s, 99.10 %) 
sirius::Band::solve_for_kset (   30.4878s, 15.01 % of self, 72.79 % of total)
|--sirius::Band::diag_pseudo_potential (   25.6522s, 84.14 %) 
|--sirius::Local_operator::prepare (    0.2601s, 0.85 %) 
|--sirius::K_point_set::sync_band_energies (    0.0005s, 0.00 %) 
sirius::Density::add_k_point_contribution_dm (    1.7723s, 0.53 % of self, 4.23 % of total)
|--sirius::Beta_projectors_base::generate (    0.9391s, 52.99 %) 
|--sirius::Beta_projectors_base::inner (    0.8237s, 46.48 %) 
|--sirius::Beta_projectors_base::prepare (    0.0000s, 0.00 %) 
|--sirius::Beta_projectors_base::dismiss (    0.0000s, 0.00 %) 
sirius::Density::add_k_point_contribution_rg (    0.6816s, 11.97 % of self, 1.63 % of total)
|--sddk::FFT3D::transform (    0.5999s, 88.01 %) 
|--sddk::FFT3D::prepare (    0.0002s, 0.02 %) 
sirius::Density::augment (    0.7730s, 0.36 % of self, 1.85 % of total)
|--sirius::Density::generate_rho_aug (    0.7702s, 99.64 %) 
sirius::Density::generate_rho_aug (    0.7702s, 24.97 % of self, 1.84 % of total)
|--sirius::Density::generate_rho_aug|gemm (    0.2728s, 35.41 %) 
|--sirius::Density::generate_rho_aug|sum (    0.2240s, 29.08 %) 
|--sirius::Density::generate_rho_aug|phase_fac (    0.0811s, 10.53 %) 
sirius::Density::generate_valence (    3.7031s, 3.61 % of self, 8.84 % of total)
|--sirius::Density::add_k_point_contribution_dm (    1.7723s, 47.86 %) 
|--sirius::Density::augment (    0.7730s, 20.88 %) 
|--sirius::Density::add_k_point_contribution_rg (    0.6816s, 18.41 %) 
|--sddk::matrix_storage::remap_forward (    0.2591s, 7.00 %) 
|--sirius::Smooth_periodic_function::fft_transform (    0.0420s, 1.13 %) 
|--sirius::Smooth_periodic_function::gather_f_pw (    0.0413s, 1.12 %) 
|--sddk::FFT3D::prepare (    0.0003s, 0.01 %) 
sirius::Local_operator::apply_h (    5.4074s, 13.15 % of self, 12.91 % of total)
|--sddk::FFT3D::transform (    3.4583s, 63.96 %) 
|--sddk::matrix_storage::remap_forward (    0.7847s, 14.51 %) 
|--sddk::matrix_storage::remap_backward (    0.4533s, 8.38 %) 
sirius::Simulation_context::initialize (    0.7327s, 0.01 % of self, 1.75 % of total)
|--sirius::Simulation_context_base::initialize (    0.4267s, 58.23 %) 
|--sirius::Augmentation_operator::generate_pw_coeffs (    0.3060s, 41.76 %) 
sirius::Simulation_context_base::initialize (    0.4267s, 15.96 % of self, 1.02 % of total)
|--sirius::Radial_integrals|beta (    0.1632s, 38.26 %) 
|--sddk::Gvec::init (    0.1127s, 26.41 %) 
|--sirius::Radial_integrals|aug (    0.0296s, 6.95 %) 
|--sddk::remap_gvec_to_shells|init (    0.0257s, 6.01 %) 
|--sddk::FFT3D::FFT3D (    0.0205s, 4.81 %) 
|--sirius::Unit_cell::initialize (    0.0068s, 1.59 %) 
|--sddk::FFT3D::prepare (    0.0001s, 0.02 %) 
sirius::Smooth_periodic_function::fft_transform (    0.8112s, 41.72 % of self, 1.94 % of total)
|--sddk::FFT3D::transform (    0.4727s, 58.28 %) 
sirius_api::sirius_set_pw_coeffs (    0.6762s, 33.90 % of self, 1.61 % of total)
|--sirius::Smooth_periodic_function::fft_transform (    0.4470s, 66.10 %) 

     init_run     :      6.87s CPU      1.20s WALL (       1 calls)

     Called by init_run:

     Called by electrons:
     v_of_rho     :      2.43s CPU      0.43s WALL (      15 calls)
     mix_rho      :      2.61s CPU      0.63s WALL (      14 calls)
     sym_rho      :      0.26s CPU      0.26s WALL (      14 calls)

     Called by c_bands:

     Called by sum_band:

     Called by *egterg:

     Called by h_psi:

     General routines
     fft          :      4.78s CPU      0.98s WALL (      88 calls)

     Parallel routines
     fft_scatter  :      1.80s CPU      0.65s WALL (      88 calls)

     PWSCF        :  3m59.77s CPU     0m41.95s WALL


   This run was terminated on:  13:21:56  25Sep2017            

=------------------------------------------------------------------------------=
   JOB DONE.
=------------------------------------------------------------------------------=
