
     Program PWSCF v.6.1 (svn rev. 13369) starts on 25Sep2017 at 13:18:51 

     This program is part of the open-source Quantum ESPRESSO suite
     for quantum simulation of materials; please cite
         "P. Giannozzi et al., J. Phys.:Condens. Matter 21 395502 (2009);
          URL http://www.quantum-espresso.org", 
     in publications or presentations arising from this work. More details at
     http://www.quantum-espresso.org/quote

     Parallel version (MPI & OpenMP), running on     144 processor cores
     Number of MPI processes:               144
     Threads/MPI process:                     1
     R & G space division:  proc/nbgrp/npool/nimage =     144
     Reading input from pw.in
     Message from routine read_cards :
     DEPRECATED: no units specified in CELL_PARAMETERS card

     Current dimensions of program PWSCF are:
     Max number of different atomic species (ntypx) = 10
     Max number of k-points (npk) =  40000
     Max angular momentum in pseudopotentials (lmaxx) =  3

     Subspace diagonalization in iterative solution of the eigenvalue problem:
     one sub-group per band group will be used
     scalapack distributed-memory algorithm (size of sub-group: 12* 12 procs)

 
     Parallelization info
     --------------------
     sticks:   dense  smooth     PW     G-vecs:    dense   smooth      PW
     Min          93      37     10                 8111     2051     288
     Max          94      38     11                 8116     2058     294
     Sum       13429    5377   1457              1168287   295907   41851
 


     bravais-lattice index     =            0
     lattice parameter (alat)  =       1.0000  a.u.
     unit-cell volume          =    8646.7719 (a.u.)^3
     number of atoms/cell      =           64
     number of atomic types    =            2
     number of electrons       =       266.00
     number of Kohn-Sham states=          160
     kinetic-energy cutoff     =      40.0000  Ry
     charge density cutoff     =     400.0000  Ry
     convergence threshold     =      1.0E-11
     mixing beta               =       0.7000
     number of iterations used =            8  plain     mixing
     Exchange-correlation      = SLA  PZ   NOGX NOGC ( 1  1  0  0 0 0)

     celldm(1)=   1.000000  celldm(2)=   0.000000  celldm(3)=   0.000000
     celldm(4)=   0.000000  celldm(5)=   0.000000  celldm(6)=   0.000000

     crystal axes: (cart. coord. in units of alat)
               a(1) = (  20.525071   0.000000   0.000000 )  
               a(2) = (   0.000000  20.525071   0.000000 )  
               a(3) = (   0.000000   0.000000  20.525071 )  

     reciprocal axes: (cart. coord. in units 2 pi/alat)
               b(1) = (  0.048721  0.000000  0.000000 )  
               b(2) = (  0.000000  0.048721  0.000000 )  
               b(3) = (  0.000000  0.000000  0.048721 )  


     PseudoPot. # 1 for Ge read from file:
     ./ge_lda_v1.4.uspp.F.UPF
     MD5 check sum: bf9d52b59cc8a669818bb2b52e0c2ba0
     Pseudo is Ultrasoft + core correction, Zval = 14.0
     Generated by new atomic code, or converted to UPF format
     Using radial grid of  873 points,  6 beta functions with: 
                l(1) =   0
                l(2) =   0
                l(3) =   1
                l(4) =   1
                l(5) =   2
                l(6) =   2
     Q(r) pseudized with  8 coefficients,  rinner =    1.400   1.400   1.400
                                                       1.400   1.400

     PseudoPot. # 2 for Si read from file:
     ./si_lda_v1.uspp.F.UPF
     MD5 check sum: b5ade7b37ee992b02096e360e546dc2d
     Pseudo is Ultrasoft + core correction, Zval =  4.0
     Generated by new atomic code, or converted to UPF format
     Using radial grid of  899 points,  6 beta functions with: 
                l(1) =   0
                l(2) =   0
                l(3) =   1
                l(4) =   1
                l(5) =   2
                l(6) =   2
     Q(r) pseudized with  8 coefficients,  rinner =    0.900   0.900   0.900
                                                       0.900   0.900

     atomic species   valence    mass     pseudopotential
        Ge            14.00    72.61000     Ge( 1.00)
        Si             4.00    28.08550     Si( 1.00)

     24 Sym. Ops. (no inversion) found



   Cartesian axes

     site n.     atom                  positions (alat units)
         1           Ge  tau(   1) = (   0.0000000   0.0000000   0.0000000  )
         2           Si  tau(   2) = (   0.0000000   0.0000000  10.2625355  )
         3           Si  tau(   3) = (   0.0000000  10.2625355   0.0000000  )
         4           Si  tau(   4) = (   0.0000000  10.2625355  10.2625355  )
         5           Si  tau(   5) = (  10.2625355   0.0000000   0.0000000  )
         6           Si  tau(   6) = (  10.2625355   0.0000000  10.2625355  )
         7           Si  tau(   7) = (  10.2625355  10.2625355   0.0000000  )
         8           Si  tau(   8) = (  10.2625355  10.2625355  10.2625355  )
         9           Si  tau(   9) = (   0.0000000   5.1312678   5.1312678  )
        10           Si  tau(  10) = (   0.0000000   5.1312678  15.3938033  )
        11           Si  tau(  11) = (   0.0000000  15.3938033   5.1312678  )
        12           Si  tau(  12) = (   0.0000000  15.3938033  15.3938033  )
        13           Si  tau(  13) = (  10.2625355   5.1312678   5.1312678  )
        14           Si  tau(  14) = (  10.2625355   5.1312678  15.3938033  )
        15           Si  tau(  15) = (  10.2625355  15.3938033   5.1312678  )
        16           Si  tau(  16) = (  10.2625355  15.3938033  15.3938033  )
        17           Si  tau(  17) = (   5.1312678   0.0000000   5.1312678  )
        18           Si  tau(  18) = (   5.1312678   0.0000000  15.3938033  )
        19           Si  tau(  19) = (   5.1312678  10.2625355   5.1312678  )
        20           Si  tau(  20) = (   5.1312678  10.2625355  15.3938033  )
        21           Si  tau(  21) = (  15.3938033   0.0000000   5.1312678  )
        22           Si  tau(  22) = (  15.3938033   0.0000000  15.3938033  )
        23           Si  tau(  23) = (  15.3938033  10.2625355   5.1312678  )
        24           Si  tau(  24) = (  15.3938033  10.2625355  15.3938033  )
        25           Si  tau(  25) = (   5.1312678   5.1312678   0.0000000  )
        26           Si  tau(  26) = (   5.1312678   5.1312678  10.2625355  )
        27           Si  tau(  27) = (   5.1312678  15.3938033   0.0000000  )
        28           Si  tau(  28) = (   5.1312678  15.3938033  10.2625355  )
        29           Si  tau(  29) = (  15.3938033   5.1312678   0.0000000  )
        30           Si  tau(  30) = (  15.3938033   5.1312678  10.2625355  )
        31           Si  tau(  31) = (  15.3938033  15.3938033   0.0000000  )
        32           Si  tau(  32) = (  15.3938033  15.3938033  10.2625355  )
        33           Si  tau(  33) = (   7.6969016   7.6969016   2.5656339  )
        34           Si  tau(  34) = (   7.6969016   7.6969016  12.8281694  )
        35           Si  tau(  35) = (   7.6969016  17.9594371   2.5656339  )
        36           Si  tau(  36) = (   7.6969016  17.9594371  12.8281694  )
        37           Si  tau(  37) = (  17.9594371   7.6969016   2.5656339  )
        38           Si  tau(  38) = (  17.9594371   7.6969016  12.8281694  )
        39           Si  tau(  39) = (  17.9594371  17.9594371   2.5656339  )
        40           Si  tau(  40) = (  17.9594371  17.9594371  12.8281694  )
        41           Si  tau(  41) = (   7.6969016   2.5656339   7.6969016  )
        42           Si  tau(  42) = (   7.6969016   2.5656339  17.9594371  )
        43           Si  tau(  43) = (   7.6969016  12.8281694   7.6969016  )
        44           Si  tau(  44) = (   7.6969016  12.8281694  17.9594371  )
        45           Si  tau(  45) = (  17.9594371   2.5656339   7.6969016  )
        46           Si  tau(  46) = (  17.9594371   2.5656339  17.9594371  )
        47           Si  tau(  47) = (  17.9594371  12.8281694   7.6969016  )
        48           Si  tau(  48) = (  17.9594371  12.8281694  17.9594371  )
        49           Si  tau(  49) = (   2.5656339   7.6969016   7.6969016  )
        50           Si  tau(  50) = (   2.5656339   7.6969016  17.9594371  )
        51           Si  tau(  51) = (   2.5656339  17.9594371   7.6969016  )
        52           Si  tau(  52) = (   2.5656339  17.9594371  17.9594371  )
        53           Si  tau(  53) = (  12.8281694   7.6969016   7.6969016  )
        54           Si  tau(  54) = (  12.8281694   7.6969016  17.9594371  )
        55           Si  tau(  55) = (  12.8281694  17.9594371   7.6969016  )
        56           Si  tau(  56) = (  12.8281694  17.9594371  17.9594371  )
        57           Si  tau(  57) = (   2.5656339   2.5656339   2.5656339  )
        58           Si  tau(  58) = (   2.5656339   2.5656339  12.8281694  )
        59           Si  tau(  59) = (   2.5656339  12.8281694   2.5656339  )
        60           Si  tau(  60) = (   2.5656339  12.8281694  12.8281694  )
        61           Si  tau(  61) = (  12.8281694   2.5656339   2.5656339  )
        62           Si  tau(  62) = (  12.8281694   2.5656339  12.8281694  )
        63           Si  tau(  63) = (  12.8281694  12.8281694   2.5656339  )
        64           Si  tau(  64) = (  12.8281694  12.8281694  12.8281694  )

     number of k points=     4  gaussian smearing, width (Ry)=  0.0100
                       cart. coord. in units 2pi/alat
        k(    1) = (   0.0000000   0.0000000   0.0000000), wk =   0.2500000
        k(    2) = (   0.0000000   0.0000000  -0.0243605), wk =   0.7500000
        k(    3) = (   0.0000000  -0.0243605  -0.0243605), wk =   0.7500000
        k(    4) = (  -0.0243605  -0.0243605  -0.0243605), wk =   0.2500000

     Dense  grid:  1168287 G-vectors     FFT dimensions: ( 135, 135, 135)

     Smooth grid:   295907 G-vectors     FFT dimensions: (  90,  90,  90)

     Estimated max dynamical RAM per process >      40.11MB

     Estimated total allocated dynamical RAM >    5775.83MB

     Initial potential from superposition of free atoms

     starting charge  265.96130, renormalised to  266.00000
     Starting wfc are  261 randomized atomic wfcs

     total cpu time spent up to now is        3.6 secs

     per-process dynamical memory:     8.7 Mb

     Self-consistent Calculation

     iteration #  1     ecut=    40.00 Ry     beta=0.70
     Davidson diagonalization with overlap
     ethr =  1.00E-02,  avg # of iterations =  3.0

     Threshold (ethr) on eigenvalues was too large:
     Diagonalizing with lowered threshold

     Davidson diagonalization with overlap
     ethr =  6.98E-04,  avg # of iterations =  1.8

     total cpu time spent up to now is       13.5 secs

     total energy              =    -819.66837646 Ry
     Harris-Foulkes estimate   =    -820.31248333 Ry
     estimated scf accuracy    <       1.83810650 Ry

     iteration #  2     ecut=    40.00 Ry     beta=0.70
     Davidson diagonalization with overlap
     ethr =  6.91E-04,  avg # of iterations =  1.0

     total cpu time spent up to now is       17.3 secs

     total energy              =    -819.75668636 Ry
     Harris-Foulkes estimate   =    -819.77243112 Ry
     estimated scf accuracy    <       0.06370661 Ry

     iteration #  3     ecut=    40.00 Ry     beta=0.70
     Davidson diagonalization with overlap
     ethr =  2.39E-05,  avg # of iterations = 11.0

     total cpu time spent up to now is       27.5 secs

     total energy              =    -819.76156693 Ry
     Harris-Foulkes estimate   =    -819.77469717 Ry
     estimated scf accuracy    <       0.02218096 Ry

     iteration #  4     ecut=    40.00 Ry     beta=0.70
     Davidson diagonalization with overlap
     ethr =  8.34E-06,  avg # of iterations =  6.8

     total cpu time spent up to now is       35.8 secs

     total energy              =    -819.76467432 Ry
     Harris-Foulkes estimate   =    -819.77882847 Ry
     estimated scf accuracy    <       0.04869352 Ry

     iteration #  5     ecut=    40.00 Ry     beta=0.70
     Davidson diagonalization with overlap
     ethr =  8.34E-06,  avg # of iterations =  5.0

     total cpu time spent up to now is       42.5 secs

     total energy              =    -819.77111597 Ry
     Harris-Foulkes estimate   =    -819.77232173 Ry
     estimated scf accuracy    <       0.00327020 Ry

     iteration #  6     ecut=    40.00 Ry     beta=0.70
     Davidson diagonalization with overlap
     ethr =  1.23E-06,  avg # of iterations =  2.8

     total cpu time spent up to now is       47.8 secs

     total energy              =    -819.77173400 Ry
     Harris-Foulkes estimate   =    -819.77179308 Ry
     estimated scf accuracy    <       0.00015144 Ry

     iteration #  7     ecut=    40.00 Ry     beta=0.70
     Davidson diagonalization with overlap
     ethr =  5.69E-08,  avg # of iterations =  3.0

     total cpu time spent up to now is       53.3 secs

     total energy              =    -819.77177441 Ry
     Harris-Foulkes estimate   =    -819.77178121 Ry
     estimated scf accuracy    <       0.00001552 Ry

     iteration #  8     ecut=    40.00 Ry     beta=0.70
     Davidson diagonalization with overlap
     ethr =  5.84E-09,  avg # of iterations =  3.0

     total cpu time spent up to now is       58.9 secs

     total energy              =    -819.77177848 Ry
     Harris-Foulkes estimate   =    -819.77177922 Ry
     estimated scf accuracy    <       0.00000168 Ry

     iteration #  9     ecut=    40.00 Ry     beta=0.70
     Davidson diagonalization with overlap
     ethr =  6.31E-10,  avg # of iterations =  3.0

     total cpu time spent up to now is       64.3 secs

     total energy              =    -819.77177892 Ry
     Harris-Foulkes estimate   =    -819.77177897 Ry
     estimated scf accuracy    <       0.00000018 Ry

     iteration # 10     ecut=    40.00 Ry     beta=0.70
     Davidson diagonalization with overlap
     ethr =  6.79E-11,  avg # of iterations =  3.0

     total cpu time spent up to now is       69.6 secs

     total energy              =    -819.77177894 Ry
     Harris-Foulkes estimate   =    -819.77177895 Ry
     estimated scf accuracy    <       0.00000003 Ry

     iteration # 11     ecut=    40.00 Ry     beta=0.70
     Davidson diagonalization with overlap
     ethr =  1.29E-11,  avg # of iterations =  2.5

     total cpu time spent up to now is       74.3 secs

     total energy              =    -819.77177894 Ry
     Harris-Foulkes estimate   =    -819.77177894 Ry
     estimated scf accuracy    <          2.8E-09 Ry

     iteration # 12     ecut=    40.00 Ry     beta=0.70
     Davidson diagonalization with overlap
     ethr =  1.07E-12,  avg # of iterations =  3.0

     total cpu time spent up to now is       80.0 secs

     total energy              =    -819.77177894 Ry
     Harris-Foulkes estimate   =    -819.77177894 Ry
     estimated scf accuracy    <          1.7E-10 Ry

     iteration # 13     ecut=    40.00 Ry     beta=0.70
     Davidson diagonalization with overlap
     ethr =  1.00E-13,  avg # of iterations =  3.0

     total cpu time spent up to now is       85.6 secs

     total energy              =    -819.77177894 Ry
     Harris-Foulkes estimate   =    -819.77177894 Ry
     estimated scf accuracy    <          2.7E-11 Ry

     iteration # 14     ecut=    40.00 Ry     beta=0.70
     Davidson diagonalization with overlap
     ethr =  1.00E-13,  avg # of iterations =  1.2

     total cpu time spent up to now is       89.5 secs

     total energy              =    -819.77177894 Ry
     Harris-Foulkes estimate   =    -819.77177894 Ry
     estimated scf accuracy    <          1.0E-11 Ry

     iteration # 15     ecut=    40.00 Ry     beta=0.70
     Davidson diagonalization with overlap
     ethr =  1.00E-13,  avg # of iterations =  1.0

     total cpu time spent up to now is       93.2 secs

     End of self-consistent calculation

          k = 0.0000 0.0000 0.0000 ( 37073 PWs)   bands (ev):

   -18.1967 -18.1967 -18.1967 -18.1664 -18.1664  -5.9340  -4.9973  -4.8227
    -4.8227  -4.8227  -4.8208  -4.8208  -4.1144  -3.8622  -3.8622  -3.8622
    -3.8578  -3.8578  -3.8578  -3.8577  -3.8577  -3.8576  -3.8576  -3.8576
    -3.6097  -3.5663  -3.5663  -3.5663  -1.9429  -1.7635  -1.7635  -1.7635
    -1.7604  -1.7604  -1.6821  -1.5971  -1.5971  -1.5971  -1.5943  -1.5943
    -1.5943  -1.5936  -1.5936  -1.5936  -1.5934  -1.5934  -0.9550  -0.9375
    -0.9375  -0.9375   0.4474   0.5646   0.5646   0.5646   0.5682   0.5682
     0.5682   0.5691   0.5691   0.5715   0.5715   0.5715   2.1723   2.1723
     2.1723   2.1819   2.1819   2.1819   2.1828   2.1828   2.1828   2.1829
     2.1859   2.1859   2.2674   2.2731   2.2731   2.2731   2.2814   2.2814
     2.2814   2.2833   2.2833   2.2842   2.2842   2.2842   2.4696   2.5277
     2.5277   2.5312   2.5312   2.5312   3.2051   3.2051   3.2051   3.2053
     3.2053   3.2053   4.1653   4.1653   4.1653   4.1669   4.1669   4.1669
     4.1690   4.1690   4.1690   4.1777   4.1777   4.1777   4.7320   4.7320
     4.7320   4.7344   4.7344   4.7344   4.7345   4.7380   4.7380   4.7412
     4.7412   4.7412   4.8628   4.8628   4.8628   4.8661   4.8661   4.8718
     4.8718   4.8718   6.0692   6.0692   6.0692   6.6461   6.6805   6.6805
     6.6805   6.6817   6.6817   7.0851   7.1105   7.1105   7.1182   7.1182
     7.1182   7.4326   7.4913   7.4913   7.4913   8.3767   8.4255   8.4255
     8.4255   8.4280   8.4280   8.4280   8.4501   8.4501   8.4501   8.4508

          k = 0.0000 0.0000-0.0244 ( 36906 PWs)   bands (ev):

   -18.1967 -18.1967 -18.1967 -18.1664 -18.1664  -5.6928  -5.6302  -4.7869
    -4.5765  -4.5765  -4.5748  -4.5735  -4.5730  -4.5730  -4.5725  -3.8957
    -3.7295  -3.7295  -3.7270  -3.7264  -3.7262  -3.7262  -3.7262  -3.5310
    -3.5119  -2.9094  -2.7886  -2.7842  -2.7842  -2.7835  -2.7835  -2.7834
    -2.7830  -1.7972  -1.6862  -1.6862  -1.6816  -1.6811  -1.6811  -1.6811
    -1.6811  -0.6342  -0.5190  -0.5190  -0.5156  -0.5156  -0.5154  -0.5151
    -0.5150  -0.3738  -0.3450  -0.3428  -0.3428  -0.3366  -0.3362  -0.3354
    -0.3354   0.2862   0.3062   1.6811   1.7545   1.7545   1.7567   1.7572
     1.7593   1.7615   1.7615   1.7972   1.7972   1.7992   1.8039   1.8040
     1.8040   1.8042   1.8061   2.6209   2.6209   2.6212   2.6251   2.6257
     2.6277   2.6277   2.6300   3.3227   3.3242   3.3270   3.3270   3.3286
     3.3313   3.3351   3.3351   3.4481   3.4481   3.4537   3.4537   3.4613
     3.4624   3.4624   3.4629   3.4648   3.4663   3.4663   3.4681   3.5659
     3.5799   3.5799   3.5827   3.5844   3.5861   3.5861   3.5864   4.6244
     4.6270   4.6270   4.6289   4.6317   4.6317   4.6327   4.6407   4.6953
     4.7188   4.7938   4.7974   4.7974   4.7974   4.7974   4.8008   4.8043
     4.8043   5.2514   5.2514   5.2618   5.2618   6.5771   6.5912   7.5049
     7.5097   7.9255   7.9433   7.9450   7.9450   7.9480   7.9647   7.9666
     7.9666   8.0109   8.0238   8.2752   8.3282   8.3282   8.3302   8.3324
     8.3341   8.3341   8.3715   8.4356   8.4403   8.4407   8.4407   8.4454

          k = 0.0000-0.0244-0.0244 ( 37020 PWs)   bands (ev):

   -18.1967 -18.1967 -18.1967 -18.1664 -18.1664  -5.4835  -5.3632  -5.3632
    -5.3621  -4.5405  -4.3511  -4.3464  -4.3464  -4.3453  -4.3452  -4.3452
    -4.3451  -3.5004  -3.3149  -3.3149  -3.3095  -3.3095  -3.3094  -3.3093
    -3.3093  -3.1175  -3.0308  -3.0308  -3.0289  -3.0286  -3.0285  -3.0281
    -3.0281  -2.2276  -2.1714  -2.1701  -2.1701  -1.2333  -1.1776  -1.1726
    -1.1726  -0.8132  -0.7496  -0.7496  -0.7475  -0.7427  -0.7422  -0.7417
    -0.7417  -0.0062   0.0874   0.0887   0.0887   0.0889   0.0889   0.0892
     0.0895   0.7043   0.7526   0.7526   0.7540   0.7577   0.7592   0.7592
     0.7624   1.7253   1.7253   1.7263   1.7311   2.5671   2.5841   2.5843
     2.5843   2.5872   2.5909   2.5909   2.5910   2.6741   2.6741   2.6773
     2.6781   2.6781   2.6802   2.6804   2.6804   3.2844   3.2875   3.2882
     3.2882   3.2903   3.2903   3.2915   3.2922   3.3328   3.3583   3.3655
     3.3655   3.6326   3.6326   3.6346   3.6362   3.8903   3.8903   3.8945
     3.8949   3.8956   3.8956   3.8982   3.8993   4.1923   4.2098   4.2107
     4.2107   4.2133   4.2138   4.2138   4.2220   4.4177   4.4188   4.4188
     4.4305   4.4710   4.4710   4.4719   4.4737   4.4738   4.4752   4.4828
     4.4828   5.7699   5.7712   5.7816   5.7816   7.1676   7.1676   7.1687
     7.1890   7.9056   7.9258   7.9281   7.9281   7.9338   7.9428   7.9506
     7.9506   8.2028   8.2230   8.2241   8.2241   8.2250   8.2296   8.2296
     8.2659   8.6093   8.6165   8.6181   8.6181   8.6189   8.6367   8.6367

          k =-0.0244-0.0244-0.0244 ( 37056 PWs)   bands (ev):

   -18.1967 -18.1967 -18.1967 -18.1664 -18.1664  -5.3167  -5.1047  -5.1047
    -5.1047  -5.1027  -5.1024  -5.1024  -5.1024  -3.6152  -3.1916  -3.1916
    -3.1916  -3.1835  -3.1835  -3.1835  -3.1834  -3.1834  -3.1831  -3.1831
    -3.1831  -3.1831  -3.1828  -3.1828  -3.1828  -3.1825  -3.1825  -3.1825
    -3.1824  -3.1824  -3.1824  -3.1824  -3.1824  -0.5912  -0.3468  -0.3468
    -0.3468  -0.3346  -0.3346  -0.3346  -0.3340  -0.3339  -0.3339  -0.3339
    -0.3339  -0.3339  -0.3339  -0.3339  -0.3339  -0.3332  -0.3332  -0.3331
    -0.3331  -0.3331  -0.3316  -0.3316  -0.3316   2.0601   2.1105   2.1105
     2.1105   2.1135   2.1189   2.1189   2.1189   2.4673   2.4885   2.4885
     2.4885   2.5020   2.5020   2.5020   2.5025   2.5025   2.5025   2.5029
     2.5029   2.5029   2.5030   2.5030   2.5030   2.5030   2.5030   2.5031
     2.5081   2.5081   2.5081   2.5087   2.5087   3.8486   3.8486   3.8486
     3.8505   3.8505   3.8505   3.8544   3.8544   3.8544   3.8551   3.8553
     3.8553   3.8553   3.8556   3.8556   3.8557   3.8557   3.8557   3.8557
     3.8579   3.8579   3.8616   3.8616   3.8616   5.3000   5.3000   5.3000
     5.3011   5.3011   5.3011   5.3016   5.3016   5.3020   5.3020   5.3020
     5.3030   5.3030   5.3249   5.3249   5.3249   7.3965   7.4863   7.4863
     7.4863   7.4878   7.4890   7.4890   7.4890   7.4894   7.4894   7.4895
     7.4895   7.4895   7.4898   7.4898   7.4898   7.4905   7.4905   7.4905
     7.5324   7.5324   7.5324   7.5393   7.5393   7.9113   7.9825   7.9825

     the Fermi energy is     6.3145 ev

!    total energy              =    -819.77177894 Ry
     Harris-Foulkes estimate   =    -819.77177894 Ry
     estimated scf accuracy    <          7.4E-13 Ry

     The total energy is the sum of the following terms:

     one-electron contribution =     -48.96907898 Ry
     hartree contribution      =     151.40313158 Ry
     xc contribution           =    -328.89322642 Ry
     ewald contribution        =    -593.31243382 Ry
     smearing contrib. (-TS)   =      -0.00017130 Ry

     convergence has been achieved in  15 iterations
 
     init_run     :      3.02s CPU      3.14s WALL (       1 calls)
     electrons    :     88.42s CPU     89.59s WALL (       1 calls)

     Called by init_run:
     wfcinit      :      2.11s CPU      2.17s WALL (       1 calls)
     potinit      :      0.07s CPU      0.07s WALL (       1 calls)

     Called by electrons:
     c_bands      :     76.38s CPU     76.91s WALL (      16 calls)
     sum_band     :     10.62s CPU     11.16s WALL (      16 calls)
     v_of_rho     :      0.07s CPU      0.08s WALL (      16 calls)
     newd         :      1.18s CPU      1.30s WALL (      16 calls)
     mix_rho      :      0.15s CPU      0.15s WALL (      16 calls)

     Called by c_bands:
     init_us_2    :      0.35s CPU      0.39s WALL (     132 calls)
     cegterg      :     74.59s CPU     75.10s WALL (      64 calls)

     Called by sum_band:
     sum_band:bec :      0.16s CPU      0.17s WALL (      64 calls)
     addusdens    :      1.09s CPU      1.57s WALL (      16 calls)

     Called by *egterg:
     h_psi        :     42.97s CPU     43.40s WALL (     284 calls)
     s_psi        :      2.95s CPU      3.00s WALL (     284 calls)
     g_psi        :      0.02s CPU      0.03s WALL (     216 calls)
     cdiaghg      :     23.41s CPU     23.46s WALL (     276 calls)

     Called by h_psi:
     h_psi:pot    :     42.90s CPU     43.31s WALL (     284 calls)
     h_psi:calbec :      4.89s CPU      4.89s WALL (     284 calls)
     vloc_psi     :     34.89s CPU     35.17s WALL (     284 calls)
     add_vuspsi   :      3.12s CPU      3.24s WALL (     284 calls)

     General routines
     calbec       :      6.69s CPU      6.67s WALL (     348 calls)
     fft          :      0.57s CPU      0.57s WALL (     144 calls)
     ffts         :      0.07s CPU      0.08s WALL (      32 calls)
     fftw         :     40.75s CPU     41.14s WALL (   65486 calls)
     interpolate  :      0.18s CPU      0.18s WALL (      32 calls)
 
     Parallel routines
     fft_scatter  :     32.12s CPU     32.60s WALL (   65662 calls)
 
     PWSCF        :  1m31.65s CPU     1m33.28s WALL

 
   This run was terminated on:  13:20:24  25Sep2017            

=------------------------------------------------------------------------------=
   JOB DONE.
=------------------------------------------------------------------------------=
