SIRIUS 7.2.8, git hash: 589ccf589dda66cbcce7b02683cba0c7a6e3f3ae

     Program PWSCF v.6.8 starts on 11Oct2021 at 10:58: 6 

     This program is part of the open-source Quantum ESPRESSO suite
     for quantum simulation of materials; please cite
         "P. Giannozzi et al., J. Phys.:Condens. Matter 21 395502 (2009);
         "P. Giannozzi et al., J. Phys.:Condens. Matter 29 465901 (2017);
         "P. Giannozzi et al., J. Chem. Phys. 152 154105 (2020);
          URL http://www.quantum-espresso.org", 
     in publications or presentations arising from this work. More details at
     http://www.quantum-espresso.org/quote

     Parallel version (MPI & OpenMP), running on      16 processor cores
     Number of MPI processes:                 1
     Threads/MPI process:                    16

     MPI processes distributed on     1 nodes
     29098 MiB available memory on the printing compute node when the environment starts

     Reading input from aiida.in

     Current dimensions of program PWSCF are:
     Max number of different atomic species (ntypx) = 10
     Max number of k-points (npk) =  40000
     Max angular momentum in pseudopotentials (lmaxx) =  4
     file O.pbe-n-kjpaw_psl.0.1.UPF: wavefunction(s)  2P renormalized
     Message from routine setup:
     using ibrav=0 with symmetry is DISCOURAGED, use correct ibrav instead

     Subspace diagonalization in iterative solution of the eigenvalue problem:
     a serial algorithm will be used


     G-vector sticks info
     --------------------
     sticks:   dense  smooth     PW     G-vecs:    dense   smooth      PW
     Sum        4643     917    305               152303    13575    2527

     Using Slab Decomposition



     bravais-lattice index     =            0
     lattice parameter (alat)  =      10.5934  a.u.
     unit-cell volume          =     285.2215 (a.u.)^3
     number of atoms/cell      =            4
     number of atomic types    =            3
     number of electrons       =        35.00
     number of Kohn-Sham states=           22
     kinetic-energy cutoff     =      50.0000  Ry
     charge density cutoff     =    1000.0000  Ry
     scf convergence threshold =      1.0E-11
     mixing beta               =       0.7000
     number of iterations used =            8  plain     mixing
     energy convergence thresh.=      1.0E-04
     force convergence thresh. =      1.0E-03
     press convergence thresh. =      5.0E-01
     Exchange-correlation= SLA  PW   PBX  PBC
                           (   1   4   3   4   0   0   0)
     nstep                     =           50


     celldm(1)=  10.593382  celldm(2)=   0.000000  celldm(3)=   0.000000
     celldm(4)=   0.000000  celldm(5)=   0.000000  celldm(6)=   0.000000

     crystal axes: (cart. coord. in units of alat)
               a(1) = (   0.269988   0.155878   0.950162 )  
               a(2) = (  -0.269988   0.155878   0.950162 )  
               a(3) = (   0.000000  -0.311756   0.950162 )  

     reciprocal axes: (cart. coord. in units 2 pi/alat)
               b(1) = (  1.851932  1.069213  0.350817 )  
               b(2) = ( -1.851932  1.069213  0.350817 )  
               b(3) = ( -0.000000 -2.138427  0.350817 )  


     PseudoPot. # 1 for Cr read from file:
     ./pseudo/cr_pbe_v1.5.uspp.F.UPF
     MD5 check sum: 0d52af634a40206e4dee301ad30da4bf
     Pseudo is Ultrasoft + core correction, Zval = 14.0
     Generated by new atomic code, or converted to UPF format
     Using radial grid of  857 points,  6 beta functions with: 
                l(1) =   0
                l(2) =   0
                l(3) =   1
                l(4) =   1
                l(5) =   2
                l(6) =   2
     Q(r) pseudized with  8 coefficients,  rinner =    0.950   0.950   0.950
                                                       0.950   0.950

     PseudoPot. # 2 for Na read from file:
     ./pseudo/Na_ONCV_PBE-1.0.upf
     MD5 check sum: 8619a8fc970a30df18a75067eea56141
     Pseudo is Norm-conserving, Zval =  9.0
     Generated using ONCVPSP code by D. R. Hamann
     Using radial grid of  602 points,  4 beta functions with: 
                l(1) =   0
                l(2) =   0
                l(3) =   1
                l(4) =   1

     PseudoPot. # 3 for O  read from file:
     ./pseudo/O.pbe-n-kjpaw_psl.0.1.UPF
     MD5 check sum: 3f94a2996a3169367d6eb21d9b593f20
     Pseudo is Projector augmented-wave + core cor, Zval =  6.0
     Generated using "atomic" code by A. Dal Corso  v.5.0.99 svn rev. 10869
     Shape of augmentation charge: BESSEL
     Using radial grid of 1095 points,  4 beta functions with: 
                l(1) =   0
                l(2) =   0
                l(3) =   1
                l(4) =   1
     Q(r) pseudized with 0 coefficients 


     atomic species   valence    mass     pseudopotential
        Cr            14.00    51.99600     Cr( 1.00)
        Na             9.00    22.98977     Na( 1.00)
        O              6.00    15.99940     O ( 1.00)

     12 Sym. Ops., with inversion, found


                                    s                        frac. trans.

      isym =  1     identity                                     

 cryst.   s( 1) = (     1          0          0      )
                  (     0          1          0      )
                  (     0          0          1      )

 cart.    s( 1) = (  1.0000000  0.0000000  0.0000000 )
                  (  0.0000000  1.0000000 -0.0000000 )
                  ( -0.0000000  0.0000000  1.0000000 )


      isym =  2     180 deg rotation - cart. axis [1,0,0]        

 cryst.   s( 2) = (     0         -1          0      )
                  (    -1          0          0      )
                  (     0          0         -1      )

 cart.    s( 2) = (  1.0000000 -0.0000000 -0.0000000 )
                  ( -0.0000000 -1.0000000  0.0000000 )
                  ( -0.0000000 -0.0000000 -1.0000000 )


      isym =  3     120 deg rotation - cryst. axis [0,0,1]       

 cryst.   s( 3) = (     0          1          0      )
                  (     0          0          1      )
                  (     1          0          0      )

 cart.    s( 3) = ( -0.5000000 -0.8660254  0.0000000 )
                  (  0.8660254 -0.5000000 -0.0000000 )
                  ( -0.0000000 -0.0000000  1.0000000 )


      isym =  4     120 deg rotation - cryst. axis [0,0,-1]      

 cryst.   s( 4) = (     0          0          1      )
                  (     1          0          0      )
                  (     0          1          0      )

 cart.    s( 4) = ( -0.5000000  0.8660254  0.0000000 )
                  ( -0.8660254 -0.5000000 -0.0000000 )
                  (  0.0000000  0.0000000  1.0000000 )


      isym =  5     180 deg rotation - cryst. axis [0,1,0]       

 cryst.   s( 5) = (    -1          0          0      )
                  (     0          0         -1      )
                  (     0         -1          0      )

 cart.    s( 5) = ( -0.5000000 -0.8660254 -0.0000000 )
                  ( -0.8660254  0.5000000  0.0000000 )
                  (  0.0000000 -0.0000000 -1.0000000 )


      isym =  6     180 deg rotation - cryst. axis [1,1,0]       

 cryst.   s( 6) = (     0          0         -1      )
                  (     0         -1          0      )
                  (    -1          0          0      )

 cart.    s( 6) = ( -0.5000000  0.8660254 -0.0000000 )
                  (  0.8660254  0.5000000  0.0000000 )
                  (  0.0000000  0.0000000 -1.0000000 )


      isym =  7     inversion                                    

 cryst.   s( 7) = (    -1          0          0      )
                  (     0         -1          0      )
                  (     0          0         -1      )

 cart.    s( 7) = ( -1.0000000 -0.0000000 -0.0000000 )
                  ( -0.0000000 -1.0000000  0.0000000 )
                  (  0.0000000 -0.0000000 -1.0000000 )


      isym =  8     inv. 180 deg rotation - cart. axis [1,0,0]   

 cryst.   s( 8) = (     0          1          0      )
                  (     1          0          0      )
                  (     0          0          1      )

 cart.    s( 8) = ( -1.0000000  0.0000000  0.0000000 )
                  (  0.0000000  1.0000000 -0.0000000 )
                  (  0.0000000  0.0000000  1.0000000 )


      isym =  9     inv. 120 deg rotation - cryst. axis [0,0,1]  

 cryst.   s( 9) = (     0         -1          0      )
                  (     0          0         -1      )
                  (    -1          0          0      )

 cart.    s( 9) = (  0.5000000  0.8660254 -0.0000000 )
                  ( -0.8660254  0.5000000  0.0000000 )
                  (  0.0000000  0.0000000 -1.0000000 )


      isym = 10     inv. 120 deg rotation - cryst. axis [0,0,-1] 

 cryst.   s(10) = (     0          0         -1      )
                  (    -1          0          0      )
                  (     0         -1          0      )

 cart.    s(10) = (  0.5000000 -0.8660254 -0.0000000 )
                  (  0.8660254  0.5000000  0.0000000 )
                  ( -0.0000000 -0.0000000 -1.0000000 )


      isym = 11     inv. 180 deg rotation - cryst. axis [0,1,0]  

 cryst.   s(11) = (     1          0          0      )
                  (     0          0          1      )
                  (     0          1          0      )

 cart.    s(11) = (  0.5000000  0.8660254  0.0000000 )
                  (  0.8660254 -0.5000000 -0.0000000 )
                  ( -0.0000000  0.0000000  1.0000000 )


      isym = 12     inv. 180 deg rotation - cryst. axis [1,1,0]  

 cryst.   s(12) = (     0          0          1      )
                  (     0          1          0      )
                  (     1          0          0      )

 cart.    s(12) = (  0.5000000 -0.8660254  0.0000000 )
                  ( -0.8660254 -0.5000000 -0.0000000 )
                  ( -0.0000000 -0.0000000  1.0000000 )


   Cartesian axes

     site n.     atom                  positions (alat units)
         1           Cr  tau(   1) = (   0.0000000   0.0000000   1.4252435  )
         2           Na  tau(   2) = (   0.0000000   0.0000000   2.8504869  )
         3           O   tau(   3) = (   0.0000000   0.0000000   0.6594884  )
         4           O   tau(   4) = (   0.0000000   0.0000000   2.1909986  )

   Crystallographic axes

     site n.     atom                  positions (cryst. coord.)
         1           Cr  tau(   1) = (  0.5000000  0.5000000  0.5000000  )
         2           Na  tau(   2) = (  1.0000000  1.0000000  1.0000000  )
         3           O   tau(   3) = (  0.2313599  0.2313599  0.2313599  )
         4           O   tau(   4) = (  0.7686401  0.7686401  0.7686401  )

     number of k points=    13  Gaussian smearing, width (Ry)=  0.1000
                       cart. coord. in units 2pi/alat
        k(    1) = (   0.0000000   0.0000000   0.0000000), wk =   0.0312500
        k(    2) = (  -0.0000000  -0.5346067   0.0877043), wk =   0.1875000
        k(    3) = (   0.0000000   1.0692135  -0.1754086), wk =   0.0937500
        k(    4) = (  -0.4629830  -0.2673034   0.1754086), wk =   0.1875000
        k(    5) = (  -0.4629830   1.3365168  -0.0877043), wk =   0.3750000
        k(    6) = (  -0.4629830   0.8019101   0.0000000), wk =   0.1875000
        k(    7) = (   0.9259660   0.5346067  -0.3508173), wk =   0.0937500
        k(    8) = (  -0.0000000   0.0000000   0.2631129), wk =   0.0625000
        k(    9) = (   0.0000000   1.6038202   0.0000000), wk =   0.1875000
        k(   10) = (   0.0000000   1.0692135   0.0877043), wk =   0.1875000
        k(   11) = (   1.3889490   0.8019101  -0.2631129), wk =   0.1875000
        k(   12) = (   1.3889490   0.2673034  -0.1754086), wk =   0.1875000
        k(   13) = (   0.0000000   0.0000000  -0.5262259), wk =   0.0312500

                       cryst. coord.
        k(    1) = (   0.0000000   0.0000000   0.0000000), wk =   0.0312500
        k(    2) = (  -0.0000000  -0.0000000   0.2500000), wk =   0.1875000
        k(    3) = (   0.0000000   0.0000000  -0.5000000), wk =   0.0937500
        k(    4) = (  -0.0000000   0.2500000   0.2500000), wk =   0.1875000
        k(    5) = (   0.0000000   0.2500000  -0.5000000), wk =   0.3750000
        k(    6) = (  -0.0000000   0.2500000  -0.2500000), wk =   0.1875000
        k(    7) = (   0.0000000  -0.5000000  -0.5000000), wk =   0.0937500
        k(    8) = (   0.2500000   0.2500000   0.2500000), wk =   0.0625000
        k(    9) = (   0.2500000   0.2500000  -0.5000000), wk =   0.1875000
        k(   10) = (   0.2500000   0.2500000  -0.2500000), wk =   0.1875000
        k(   11) = (   0.2500000  -0.5000000  -0.5000000), wk =   0.1875000
        k(   12) = (   0.2500000  -0.5000000  -0.2500000), wk =   0.1875000
        k(   13) = (  -0.5000000  -0.5000000  -0.5000000), wk =   0.0312500

     Dense  grid:   152303 G-vectors     FFT dimensions: ( 108, 108, 108)

     Smooth grid:    13575 G-vectors     FFT dimensions: (  48,  48,  48)

     Dynamical RAM for                 wfc:       0.57 MB

     Dynamical RAM for     wfc (w. buffer):       8.00 MB

     Dynamical RAM for           str. fact:       6.97 MB

     Dynamical RAM for           local pot:       0.00 MB

     Dynamical RAM for          nlocal pot:       1.09 MB

     Dynamical RAM for                qrad:      15.22 MB

     Dynamical RAM for          rho,v,vnew:      35.80 MB

     Dynamical RAM for               rhoin:      11.93 MB

     Dynamical RAM for            rho*nmix:      37.18 MB

     Dynamical RAM for           G-vectors:       8.82 MB

     Dynamical RAM for          h,s,v(r/c):       0.09 MB

     Dynamical RAM for          <psi|beta>:       0.01 MB

     Dynamical RAM for                 psi:       1.14 MB

     Dynamical RAM for                hpsi:       1.14 MB

     Dynamical RAM for                spsi:       1.14 MB

     Dynamical RAM for      wfcinit/wfcrot:       1.15 MB

     Dynamical RAM for           addusdens:     436.90 MB

     Dynamical RAM for          addusforce:     442.72 MB

     Dynamical RAM for         addusstress:     467.12 MB

     Estimated static dynamical RAM per process >     145.19 MB

     Estimated max dynamical RAM per process >     649.49 MB

     Check: negative core charge=   -0.000003

     Initial potential from superposition of free atoms

     starting charge   33.86328, renormalised to   35.00000

     negative rho (up, down):  8.398E-04 0.000E+00
     Starting wfcs are   18 randomized atomic wfcs +    4 random wfcs
     Checking if some PAW data can be deallocated... 

     total cpu time spent up to now is        5.1 secs

     per-process dynamical memory:   471.5 Mb

     Self-consistent Calculation

     iteration #  1     ecut=    50.00 Ry     beta= 0.70
     Davidson diagonalization with overlap

---- Real-time Memory Report at c_bands before calling an iterative solver
           639 MiB given to the printing process from OS
           462 MiB allocation reported by mallinfo(arena+hblkhd)
         28927 MiB available memory on the node where the printing process lives
------------------
     ethr =  1.00E-02,  avg # of iterations =  6.8

     negative rho (up, down):  1.477E-03 0.000E+00

     total cpu time spent up to now is       10.2 secs

     total energy              =    -343.79666152 Ry
     Harris-Foulkes estimate   =    -344.61835619 Ry
     estimated scf accuracy    <       0.98785794 Ry
 
     Band energy sum           =     -28.23337169 Ry

     iteration #  2     ecut=    50.00 Ry     beta= 0.70
     Davidson diagonalization with overlap

---- Real-time Memory Report at c_bands before calling an iterative solver
           659 MiB given to the printing process from OS
           501 MiB allocation reported by mallinfo(arena+hblkhd)
         28885 MiB available memory on the node where the printing process lives
------------------
     ethr =  2.82E-03,  avg # of iterations =  3.5

     negative rho (up, down):  5.567E-04 0.000E+00

     total cpu time spent up to now is       13.1 secs

     total energy              =    -341.97264378 Ry
     Harris-Foulkes estimate   =    -345.72917736 Ry
     estimated scf accuracy    <      17.96900142 Ry
 
     Band energy sum           =     -33.61293984 Ry

     iteration #  3     ecut=    50.00 Ry     beta= 0.70
     Davidson diagonalization with overlap

---- Real-time Memory Report at c_bands before calling an iterative solver
           661 MiB given to the printing process from OS
           518 MiB allocation reported by mallinfo(arena+hblkhd)
         28883 MiB available memory on the node where the printing process lives
------------------
     ethr =  2.82E-03,  avg # of iterations =  3.4

     negative rho (up, down):  6.364E-04 0.000E+00

     total cpu time spent up to now is       16.6 secs

     total energy              =    -344.27102894 Ry
     Harris-Foulkes estimate   =    -344.42827874 Ry
     estimated scf accuracy    <       0.63205196 Ry
 
     Band energy sum           =     -28.07174162 Ry

     iteration #  4     ecut=    50.00 Ry     beta= 0.70
     Davidson diagonalization with overlap

---- Real-time Memory Report at c_bands before calling an iterative solver
           663 MiB given to the printing process from OS
           519 MiB allocation reported by mallinfo(arena+hblkhd)
         28884 MiB available memory on the node where the printing process lives
------------------
     ethr =  1.81E-03,  avg # of iterations =  2.0

     negative rho (up, down):  6.545E-04 0.000E+00

     total cpu time spent up to now is       18.7 secs

     total energy              =    -344.30798265 Ry
     Harris-Foulkes estimate   =    -344.33304497 Ry
     estimated scf accuracy    <       0.14337982 Ry
 
     Band energy sum           =     -29.97257585 Ry

     iteration #  5     ecut=    50.00 Ry     beta= 0.70
     Davidson diagonalization with overlap

---- Real-time Memory Report at c_bands before calling an iterative solver
           664 MiB given to the printing process from OS
           519 MiB allocation reported by mallinfo(arena+hblkhd)
         28883 MiB available memory on the node where the printing process lives
------------------
     ethr =  4.10E-04,  avg # of iterations =  1.9

     negative rho (up, down):  7.240E-04 0.000E+00

     total cpu time spent up to now is       20.8 secs

     total energy              =    -344.30607888 Ry
     Harris-Foulkes estimate   =    -344.31512915 Ry
     estimated scf accuracy    <       0.03721809 Ry
 
     Band energy sum           =     -29.84056959 Ry

     iteration #  6     ecut=    50.00 Ry     beta= 0.70
     Davidson diagonalization with overlap

---- Real-time Memory Report at c_bands before calling an iterative solver
           664 MiB given to the printing process from OS
           520 MiB allocation reported by mallinfo(arena+hblkhd)
         28883 MiB available memory on the node where the printing process lives
------------------
     ethr =  1.06E-04,  avg # of iterations =  2.2

     negative rho (up, down):  7.529E-04 0.000E+00

     total cpu time spent up to now is       42.3 secs

     total energy              =    -344.30970959 Ry
     Harris-Foulkes estimate   =    -344.31008128 Ry
     estimated scf accuracy    <       0.00150553 Ry
 
     Band energy sum           =     -30.07314515 Ry

     iteration #  7     ecut=    50.00 Ry     beta= 0.70
     Davidson diagonalization with overlap

---- Real-time Memory Report at c_bands before calling an iterative solver
           665 MiB given to the printing process from OS
           520 MiB allocation reported by mallinfo(arena+hblkhd)
         28884 MiB available memory on the node where the printing process lives
------------------
     ethr =  4.30E-06,  avg # of iterations =  4.5

     negative rho (up, down):  7.608E-04 0.000E+00

     total cpu time spent up to now is       45.5 secs

     total energy              =    -344.30996370 Ry
     Harris-Foulkes estimate   =    -344.30997955 Ry
     estimated scf accuracy    <       0.00005581 Ry
 
     Band energy sum           =     -30.19524073 Ry

     iteration #  8     ecut=    50.00 Ry     beta= 0.70
     Davidson diagonalization with overlap

---- Real-time Memory Report at c_bands before calling an iterative solver
           666 MiB given to the printing process from OS
           521 MiB allocation reported by mallinfo(arena+hblkhd)
         28883 MiB available memory on the node where the printing process lives
------------------
     ethr =  1.59E-07,  avg # of iterations =  4.5

     negative rho (up, down):  7.601E-04 0.000E+00

     total cpu time spent up to now is       49.5 secs

     total energy              =    -344.30997656 Ry
     Harris-Foulkes estimate   =    -344.30997886 Ry
     estimated scf accuracy    <       0.00000781 Ry
 
     Band energy sum           =     -30.21569493 Ry

     iteration #  9     ecut=    50.00 Ry     beta= 0.70
     Davidson diagonalization with overlap

---- Real-time Memory Report at c_bands before calling an iterative solver
           667 MiB given to the printing process from OS
           526 MiB allocation reported by mallinfo(arena+hblkhd)
         28881 MiB available memory on the node where the printing process lives
------------------
     ethr =  2.23E-08,  avg # of iterations =  2.2

     negative rho (up, down):  7.586E-04 0.000E+00

     total cpu time spent up to now is       51.5 secs

     total energy              =    -344.30997654 Ry
     Harris-Foulkes estimate   =    -344.30997718 Ry
     estimated scf accuracy    <       0.00000193 Ry
 
     Band energy sum           =     -30.20585844 Ry

     iteration # 10     ecut=    50.00 Ry     beta= 0.70
     Davidson diagonalization with overlap

---- Real-time Memory Report at c_bands before calling an iterative solver
           668 MiB given to the printing process from OS
           535 MiB allocation reported by mallinfo(arena+hblkhd)
         28883 MiB available memory on the node where the printing process lives
------------------
     ethr =  5.50E-09,  avg # of iterations =  3.1

     negative rho (up, down):  7.585E-04 0.000E+00

     total cpu time spent up to now is       54.2 secs

     total energy              =    -344.30997680 Ry
     Harris-Foulkes estimate   =    -344.30997681 Ry
     estimated scf accuracy    <       0.00000012 Ry
 
     Band energy sum           =     -30.20002327 Ry

     iteration # 11     ecut=    50.00 Ry     beta= 0.70
     Davidson diagonalization with overlap

---- Real-time Memory Report at c_bands before calling an iterative solver
           669 MiB given to the printing process from OS
           543 MiB allocation reported by mallinfo(arena+hblkhd)
         28880 MiB available memory on the node where the printing process lives
------------------
     ethr =  3.48E-10,  avg # of iterations =  2.6

     negative rho (up, down):  7.583E-04 0.000E+00

     total cpu time spent up to now is       56.2 secs

     total energy              =    -344.30997678 Ry
     Harris-Foulkes estimate   =    -344.30997680 Ry
     estimated scf accuracy    <       0.00000006 Ry
 
     Band energy sum           =     -30.20042727 Ry

     iteration # 12     ecut=    50.00 Ry     beta= 0.70
     Davidson diagonalization with overlap

---- Real-time Memory Report at c_bands before calling an iterative solver
           669 MiB given to the printing process from OS
           543 MiB allocation reported by mallinfo(arena+hblkhd)
         28880 MiB available memory on the node where the printing process lives
------------------
     ethr =  1.82E-10,  avg # of iterations =  2.1

     negative rho (up, down):  7.583E-04 0.000E+00

     total cpu time spent up to now is       58.0 secs

     total energy              =    -344.30997679 Ry
     Harris-Foulkes estimate   =    -344.30997679 Ry
     estimated scf accuracy    <          8.7E-10 Ry
 
     Band energy sum           =     -30.20013846 Ry

     iteration # 13     ecut=    50.00 Ry     beta= 0.70
     Davidson diagonalization with overlap

---- Real-time Memory Report at c_bands before calling an iterative solver
           670 MiB given to the printing process from OS
           547 MiB allocation reported by mallinfo(arena+hblkhd)
         28880 MiB available memory on the node where the printing process lives
------------------
     ethr =  2.48E-12,  avg # of iterations =  5.4

     negative rho (up, down):  7.582E-04 0.000E+00

     total cpu time spent up to now is       63.0 secs

     total energy              =    -344.30997679 Ry
     Harris-Foulkes estimate   =    -344.30997679 Ry
     estimated scf accuracy    <          8.0E-11 Ry
 
     Band energy sum           =     -30.20003680 Ry

     iteration # 14     ecut=    50.00 Ry     beta= 0.70
     Davidson diagonalization with overlap

---- Real-time Memory Report at c_bands before calling an iterative solver
           670 MiB given to the printing process from OS
           547 MiB allocation reported by mallinfo(arena+hblkhd)
         28878 MiB available memory on the node where the printing process lives
------------------
     ethr =  2.29E-13,  avg # of iterations =  2.6

     negative rho (up, down):  7.582E-04 0.000E+00

     total cpu time spent up to now is       65.9 secs

     End of self-consistent calculation

          k = 0.0000 0.0000 0.0000 (  1697 PWs)   bands (ev):

   -61.4082 -41.2374 -32.7288 -32.7288 -32.6816 -13.2449 -13.1589 -13.1589
    -9.1498  -7.7072   3.9290   5.3527   5.3527   7.5897   7.8656   7.8656
    10.4391  10.4391  11.3334  13.3275  13.4160  13.4160

     occupation numbers 
     1.0000   1.0000   1.0000   1.0000   1.0000   1.0000   1.0000   1.0000
     1.0000   1.0000   1.0000   1.0000   1.0000   0.9998   0.9994   0.9994
     0.7068   0.7068   0.3499   0.0070   0.0054   0.0054

          k =-0.0000-0.5346 0.0877 (  1707 PWs)   bands (ev):

   -61.4001 -41.2269 -32.8078 -32.7463 -32.6667 -13.2824 -13.2012 -13.1823
    -8.6218  -7.8035   4.5906   4.9313   5.6384   5.7536   7.1143   7.6963
    10.5554  11.0517  11.4067  12.6381  13.3072  15.4791

     occupation numbers 
     1.0000   1.0000   1.0000   1.0000   1.0000   1.0000   1.0000   1.0000
     1.0000   1.0000   1.0000   1.0000   1.0000   1.0000   1.0000   0.9997
     0.6639   0.4630   0.3221   0.0408   0.0074   0.0000

          k = 0.0000 1.0692-0.1754 (  1692 PWs)   bands (ev):

   -61.3919 -41.2159 -32.8858 -32.7637 -32.6518 -13.3990 -13.2057 -13.1567
    -8.0222  -7.9242   3.8801   5.0405   5.7978   5.9411   6.7439   6.7768
    10.3754  11.1912  11.3308  13.0579  13.4316  18.2275

     occupation numbers 
     1.0000   1.0000   1.0000   1.0000   1.0000   1.0000   1.0000   1.0000
     1.0000   1.0000   1.0000   1.0000   1.0000   1.0000   1.0000   1.0000
     0.7291   0.4060   0.3509   0.0147   0.0051   0.0000

          k =-0.4630-0.2673 0.1754 (  1716 PWs)   bands (ev):

   -61.4001 -41.2270 -32.8078 -32.7463 -32.6667 -13.2825 -13.2024 -13.1823
    -8.5899  -7.8378   4.6740   4.8314   5.6485   5.8109   7.1007   7.6511
    10.5257  11.0449  11.3580  12.8520  13.3212  15.2658

     occupation numbers 
     1.0000   1.0000   1.0000   1.0000   1.0000   1.0000   1.0000   1.0000
     1.0000   1.0000   1.0000   1.0000   1.0000   1.0000   1.0000   0.9997
     0.6750   0.4658   0.3405   0.0248   0.0071   0.0000

          k =-0.4630 1.3365-0.0877 (  1694 PWs)   bands (ev):

   -61.3919 -41.2160 -32.8554 -32.7944 -32.6519 -13.3504 -13.2539 -13.1573
    -8.0505  -7.8981   4.4853   4.6729   5.5811   6.0211   6.2245   7.0288
    10.7236  11.1995  11.2565  12.9786  13.0991  17.4063

     occupation numbers 
     1.0000   1.0000   1.0000   1.0000   1.0000   1.0000   1.0000   1.0000
     1.0000   1.0000   1.0000   1.0000   1.0000   1.0000   1.0000   1.0000
     0.5980   0.4026   0.3799   0.0181   0.0132   0.0000

          k =-0.4630 0.8019 0.0000 (  1696 PWs)   bands (ev):

   -61.3919 -41.2160 -32.8554 -32.7944 -32.6519 -13.3508 -13.2539 -13.1568
    -8.0530  -7.8969   4.4986   4.7954   5.5603   5.9070   6.2340   6.9482
    10.7716  11.2472  11.2506  12.9175  13.1555  17.5126

     occupation numbers 
     1.0000   1.0000   1.0000   1.0000   1.0000   1.0000   1.0000   1.0000
     1.0000   1.0000   1.0000   1.0000   1.0000   1.0000   1.0000   1.0000
     0.5786   0.3836   0.3822   0.0211   0.0113   0.0000

          k = 0.9260 0.5346-0.3508 (  1702 PWs)   bands (ev):

   -61.3919 -41.2161 -32.8858 -32.7637 -32.6518 -13.3973 -13.2056 -13.1567
    -8.0724  -7.8711   3.6529   4.9484   5.8013   6.2259   6.7698   7.0167
    10.1961  11.1907  11.3370  13.1772  13.4472  16.7934

     occupation numbers 
     1.0000   1.0000   1.0000   1.0000   1.0000   1.0000   1.0000   1.0000
     1.0000   1.0000   1.0000   1.0000   1.0000   1.0000   1.0000   1.0000
     0.7871   0.4062   0.3485   0.0107   0.0049   0.0000

          k =-0.0000 0.0000 0.2631 (  1709 PWs)   bands (ev):

   -61.4082 -41.2376 -32.7288 -32.7288 -32.6816 -13.2539 -13.1589 -13.1589
    -9.0645  -7.8007   4.2201   5.3654   5.3654   7.0346   7.8383   7.8383
    10.4424  10.4424  11.3466  13.4344  13.4344  14.0169

     occupation numbers 
     1.0000   1.0000   1.0000   1.0000   1.0000   1.0000   1.0000   1.0000
     1.0000   1.0000   1.0000   1.0000   1.0000   1.0000   0.9994   0.9994
     0.7056   0.7056   0.3448   0.0051   0.0051   0.0007

          k = 0.0000 1.6038 0.0000 (  1710 PWs)   bands (ev):

   -61.4001 -41.2269 -32.8078 -32.7463 -32.6667 -13.2812 -13.2063 -13.1823
    -8.5700  -7.8541   4.4381   5.0494   5.6472   5.9450   7.1008   7.5634
    10.4774  11.0517  11.4298  12.3922  13.3156  16.1744

     occupation numbers 
     1.0000   1.0000   1.0000   1.0000   1.0000   1.0000   1.0000   1.0000
     1.0000   1.0000   1.0000   1.0000   1.0000   1.0000   1.0000   0.9998
     0.6929   0.4630   0.3135   0.0686   0.0072   0.0000

          k = 0.0000 1.0692 0.0877 (  1694 PWs)   bands (ev):

   -61.3919 -41.2160 -32.8858 -32.7637 -32.6518 -13.3981 -13.2057 -13.1567
    -8.0516  -7.8934   3.7594   4.9924   5.7995   6.0916   6.7733   6.8784
    10.2893  11.1910  11.3336  13.1105  13.4394  17.3085

     occupation numbers 
     1.0000   1.0000   1.0000   1.0000   1.0000   1.0000   1.0000   1.0000
     1.0000   1.0000   1.0000   1.0000   1.0000   1.0000   1.0000   1.0000
     0.7579   0.4061   0.3498   0.0128   0.0050   0.0000

          k = 1.3889 0.8019-0.2631 (  1720 PWs)   bands (ev):

   -61.4001 -41.2271 -32.8078 -32.7463 -32.6667 -13.2813 -13.2074 -13.1823
    -8.5330  -7.8936   4.4834   4.9710   5.6575   6.0463   7.0869   7.4841
    10.4555  11.0450  11.3721  12.5832  13.3295  15.9456

     occupation numbers 
     1.0000   1.0000   1.0000   1.0000   1.0000   1.0000   1.0000   1.0000
     1.0000   1.0000   1.0000   1.0000   1.0000   1.0000   1.0000   0.9999
     0.7009   0.4658   0.3351   0.0460   0.0069   0.0000

          k = 1.3889 0.2673-0.1754 (  1700 PWs)   bands (ev):

   -61.3919 -41.2161 -32.8554 -32.7944 -32.6519 -13.3499 -13.2539 -13.1579
    -8.0480  -7.8993   4.5156   4.5253   5.5987   6.1061   6.2318   7.1090
    10.6751  11.1543  11.2574  13.0034  13.0823  17.3387

     occupation numbers 
     1.0000   1.0000   1.0000   1.0000   1.0000   1.0000   1.0000   1.0000
     1.0000   1.0000   1.0000   1.0000   1.0000   1.0000   1.0000   1.0000
     0.6174   0.4209   0.3796   0.0169   0.0138   0.0000

          k = 0.0000 0.0000-0.5262 (  1696 PWs)   bands (ev):

   -61.4082 -41.2374 -32.7288 -32.7288 -32.6815 -13.2629 -13.1589 -13.1589
    -8.9654  -7.9080   4.6364   5.3784   5.3784   6.3973   7.8110   7.8110
    10.4457  10.4457  11.3446  13.4528  13.4528  15.0500

     occupation numbers 
     1.0000   1.0000   1.0000   1.0000   1.0000   1.0000   1.0000   1.0000
     1.0000   1.0000   1.0000   1.0000   1.0000   1.0000   0.9995   0.9995
     0.7044   0.7044   0.3456   0.0048   0.0048   0.0000

     the Fermi energy is    10.9624 ev

!    total energy              =    -344.30997679 Ry
     Harris-Foulkes estimate   =    -344.30997679 Ry
     estimated scf accuracy    <          4.8E-12 Ry
     smearing contrib. (-TS)   =      -0.16987107 Ry
     internal energy E=F+TS    =    -344.14010572 Ry

     The total energy is F=E-TS. E is the sum of the following terms:
     one-electron contribution =    -151.16083064 Ry
     hartree contribution      =      91.38907225 Ry
     xc contribution           =     -49.94282234 Ry
     ewald contribution        =    -215.39703557 Ry
     one-center paw contrib.   =     -19.02848942 Ry
      -> PAW hartree energy AE =      52.91992418 Ry
      -> PAW hartree energy PS =     -52.66819396 Ry
      -> PAW xc energy AE      =     -33.43993709 Ry
      -> PAW xc energy PS      =      14.15971746 Ry
      -> total E_H with PAW    =      91.64080246 Ry
      -> total E_XC with PAW   =     -69.22304197 Ry
 
     Band energy sum           =     -30.19999892 Ry

     convergence has been achieved in  14 iterations

     evp_work_count     :       3330
     num_loc_op_applied :      10896

     negative rho (up, down):  7.582E-04 0.000E+00

     Forces acting on atoms (cartesian axes, Ry/au):

     atom    1 type  1   force =     0.00000000   -0.00000000   -0.00000000
     atom    2 type  2   force =     0.00000000    0.00000000    0.00000000
     atom    3 type  3   force =    -0.00000000   -0.00000000    0.00313758
     atom    4 type  3   force =     0.00000000    0.00000000   -0.00313758
     The non-local contrib.  to forces
     atom    1 type  1   force =    -0.00000000    0.00000000    0.00000000
     atom    2 type  2   force =     0.00000000    0.00000000   -0.00000000
     atom    3 type  3   force =     0.00000000   -0.00000000   -0.52856305
     atom    4 type  3   force =    -0.00000000    0.00000000    0.52856305
     The ionic contribution  to forces
     atom    1 type  1   force =     0.00000000    0.00000000   -0.00000000
     atom    2 type  2   force =    -0.00000000    0.00000000    0.00000000
     atom    3 type  3   force =     0.00000000    0.00000000   10.80289847
     atom    4 type  3   force =     0.00000000   -0.00000000  -10.80289847
     The local contribution  to forces
     atom    1 type  1   force =    -0.00000000   -0.00000000    0.00000002
     atom    2 type  2   force =     0.00000000   -0.00000000    0.00000001
     atom    3 type  3   force =     0.00000000   -0.00000000  -10.27662357
     atom    4 type  3   force =    -0.00000000    0.00000000   10.27662357
     The core correction contribution to forces
     atom    1 type  1   force =    -0.00000000   -0.00000000   -0.00000000
     atom    2 type  2   force =     0.00000000    0.00000000    0.00000000
     atom    3 type  3   force =    -0.00000000   -0.00000000    0.00542416
     atom    4 type  3   force =    -0.00000000    0.00000000   -0.00542416
     The Hubbard contrib.    to forces
     atom    1 type  1   force =     0.00000000    0.00000000    0.00000000
     atom    2 type  2   force =     0.00000000    0.00000000    0.00000000
     atom    3 type  3   force =     0.00000000    0.00000000    0.00000000
     atom    4 type  3   force =     0.00000000    0.00000000    0.00000000
     The SCF correction term to forces
     atom    1 type  1   force =     0.00000000    0.00000000    0.00000000
     atom    2 type  2   force =     0.00000000    0.00000000    0.00000000
     atom    3 type  3   force =     0.00000000    0.00000000    0.00000157
     atom    4 type  3   force =     0.00000000   -0.00000000   -0.00000157

     Total force =     0.004437     Total SCF correction =     0.000002


     Computing stress (Cartesian axis) and pressure


     negative rho (up, down):  7.582E-04 0.000E+00
          total   stress  (Ry/bohr**3)                   (kbar)     P=      -34.36
  -0.00034083   0.00000000   0.00000000          -50.14        0.00        0.00
   0.00000000  -0.00034083   0.00000000            0.00      -50.14        0.00
   0.00000000  -0.00000000  -0.00001896            0.00       -0.00       -2.79

     kinetic stress (kbar)  39730.39      0.00      0.00
                                0.00  39730.39     -0.00
                                0.00     -0.00  40187.03

     local   stress (kbar) -20759.91      0.00     -0.00
                                0.00 -20759.91     -0.00
                               -0.00     -0.00  13895.24

     nonloc. stress (kbar)  -1286.60      0.00      0.00
                                0.00  -1286.60     -0.00
                                0.00     -0.00  -1281.99

     hartree stress (kbar)  20747.92     -0.00      0.00
                               -0.00  20747.92      0.00
                                0.00      0.00   5638.74

     exc-cor stress (kbar)  -6335.89     -0.00      0.00
                               -0.00  -6335.89     -0.00
                                0.00     -0.00  -6343.88

     corecor stress (kbar)  -1765.19     -0.00     -0.00
                               -0.00  -1765.19      0.00
                               -0.00      0.00  -1767.01

     ewald   stress (kbar) -30380.85     -0.00      0.00
                               -0.00 -30380.85      0.00
                                0.00      0.00 -50330.91

     hubbard stress (kbar)      0.00      0.00      0.00
                                0.00      0.00      0.00
                                0.00      0.00      0.00

     DFT-D   stress (kbar)      0.00      0.00      0.00
                                0.00      0.00      0.00
                                0.00      0.00      0.00

     XDM     stress (kbar)      0.00      0.00      0.00
                                0.00      0.00      0.00
                                0.00      0.00      0.00

     dft-nl  stress (kbar)      0.00      0.00      0.00
                                0.00      0.00      0.00
                                0.00      0.00      0.00

     TS-vdW  stress (kbar)      0.00      0.00      0.00
                                0.00      0.00      0.00
                                0.00      0.00      0.00


                                0.00      0.00      0.00
                                0.00      0.00      0.00


                                0.00      0.00      0.00


     BFGS Geometry Optimization
     Energy error            =      0.0E+00 Ry
     Gradient error          =      3.1E-03 Ry/Bohr
     Cell gradient error     =      5.0E+01 kbar

     number of scf cycles    =   1
     number of bfgs steps    =   0

     enthalpy           new  =    -344.3099767927 Ry

     new trust radius        =       0.0287808081 bohr
     new conv_thr            =            1.0E-11 Ry

     new unit-cell volume =    280.24859 a.u.^3 (    41.52856 Ang^3 )
     density =      4.27783 g/cm^3

CELL_PARAMETERS (angstrom)
   1.500597783   0.866370534   5.323872028
  -1.500597783   0.866370534   5.323872028
   0.000000000  -1.732741068   5.323872028

ATOMIC_POSITIONS (angstrom)
Cr            0.0000000000        0.0000000000        7.9858080425
Na            0.0000000000        0.0000000000       15.9716160849
O             0.0000000000        0.0000000000        3.6968509585
O             0.0000000000       -0.0000000000       12.2747651266



     Writing config-only to output data dir ./out/aiida.save/
     NEW-OLD atomic charge density approx. for the potential

     Check: negative core charge=   -0.000003

     negative rho (up, down):  7.418E-04 0.000E+00
     extrapolated charge   34.39911, renormalised to   35.00000

     total cpu time spent up to now is       81.1 secs

     per-process dynamical memory:  1058.6 Mb

     Self-consistent Calculation

     iteration #  1     ecut=    50.00 Ry     beta= 0.70
     Davidson diagonalization with overlap

---- Real-time Memory Report at c_bands before calling an iterative solver
           745 MiB given to the printing process from OS
          1033 MiB allocation reported by mallinfo(arena+hblkhd)
         28860 MiB available memory on the node where the printing process lives
------------------
     ethr =  1.00E-06,  avg # of iterations =  7.9

     negative rho (up, down):  2.856E-04 0.000E+00

     total cpu time spent up to now is       87.4 secs

     total energy              =    -343.99223112 Ry
     Harris-Foulkes estimate   =    -346.40819569 Ry
     estimated scf accuracy    <       0.29827935 Ry
 
     Band energy sum           =     -32.49670352 Ry

     iteration #  2     ecut=    50.00 Ry     beta= 0.70
     Davidson diagonalization with overlap

---- Real-time Memory Report at c_bands before calling an iterative solver
           745 MiB given to the printing process from OS
          1324 MiB allocation reported by mallinfo(arena+hblkhd)
         28849 MiB available memory on the node where the printing process lives
------------------
     ethr =  8.52E-04,  avg # of iterations =  6.5

     negative rho (up, down):  5.547E-04 0.000E+00

     total cpu time spent up to now is       91.9 secs

     total energy              =    -343.84676719 Ry
     Harris-Foulkes estimate   =    -345.06582449 Ry
     estimated scf accuracy    <       5.28579161 Ry
 
     Band energy sum           =     -25.25770076 Ry

     iteration #  3     ecut=    50.00 Ry     beta= 0.70
     Davidson diagonalization with overlap

---- Real-time Memory Report at c_bands before calling an iterative solver
           745 MiB given to the printing process from OS
          1443 MiB allocation reported by mallinfo(arena+hblkhd)
         28845 MiB available memory on the node where the printing process lives
------------------
     ethr =  8.52E-04,  avg # of iterations =  5.3

     negative rho (up, down):  6.315E-04 0.000E+00

     total cpu time spent up to now is       96.1 secs

     total energy              =    -344.32053526 Ry
     Harris-Foulkes estimate   =    -344.34309724 Ry
     estimated scf accuracy    <       0.16586707 Ry
 
     Band energy sum           =     -28.22574546 Ry

     iteration #  4     ecut=    50.00 Ry     beta= 0.70
     Davidson diagonalization with overlap

---- Real-time Memory Report at c_bands before calling an iterative solver
           745 MiB given to the printing process from OS
          1540 MiB allocation reported by mallinfo(arena+hblkhd)
         28843 MiB available memory on the node where the printing process lives
------------------
     ethr =  4.74E-04,  avg # of iterations =  1.3

     negative rho (up, down):  6.695E-04 0.000E+00

     total cpu time spent up to now is       98.3 secs

     total energy              =    -344.31761687 Ry
     Harris-Foulkes estimate   =    -344.32440321 Ry
     estimated scf accuracy    <       0.07404778 Ry
 
     Band energy sum           =     -28.59970534 Ry

     iteration #  5     ecut=    50.00 Ry     beta= 0.70
     Davidson diagonalization with overlap

---- Real-time Memory Report at c_bands before calling an iterative solver
           745 MiB given to the printing process from OS
          1552 MiB allocation reported by mallinfo(arena+hblkhd)
         28841 MiB available memory on the node where the printing process lives
------------------
     ethr =  2.12E-04,  avg # of iterations =  1.6

     negative rho (up, down):  6.921E-04 0.000E+00

     total cpu time spent up to now is      100.5 secs

     total energy              =    -344.31565638 Ry
     Harris-Foulkes estimate   =    -344.31878471 Ry
     estimated scf accuracy    <       0.04131879 Ry
 
     Band energy sum           =     -28.89669660 Ry

     iteration #  6     ecut=    50.00 Ry     beta= 0.70
     Davidson diagonalization with overlap

---- Real-time Memory Report at c_bands before calling an iterative solver
           745 MiB given to the printing process from OS
          1602 MiB allocation reported by mallinfo(arena+hblkhd)
         28840 MiB available memory on the node where the printing process lives
------------------
     ethr =  1.18E-04,  avg # of iterations =  1.0

     negative rho (up, down):  7.301E-04 0.000E+00

     total cpu time spent up to now is      102.7 secs

     total energy              =    -344.31169979 Ry
     Harris-Foulkes estimate   =    -344.31595482 Ry
     estimated scf accuracy    <       0.02613243 Ry
 
     Band energy sum           =     -29.03521762 Ry

     iteration #  7     ecut=    50.00 Ry     beta= 0.70
     Davidson diagonalization with overlap

---- Real-time Memory Report at c_bands before calling an iterative solver
           745 MiB given to the printing process from OS
          1689 MiB allocation reported by mallinfo(arena+hblkhd)
         28835 MiB available memory on the node where the printing process lives
------------------
     ethr =  7.47E-05,  avg # of iterations =  1.7

     negative rho (up, down):  7.406E-04 0.000E+00

     total cpu time spent up to now is      104.7 secs

     total energy              =    -344.31179021 Ry
     Harris-Foulkes estimate   =    -344.31253075 Ry
     estimated scf accuracy    <       0.00790221 Ry
 
     Band energy sum           =     -29.28768147 Ry

     iteration #  8     ecut=    50.00 Ry     beta= 0.70
     Davidson diagonalization with overlap

---- Real-time Memory Report at c_bands before calling an iterative solver
           745 MiB given to the printing process from OS
          1759 MiB allocation reported by mallinfo(arena+hblkhd)
         28833 MiB available memory on the node where the printing process lives
------------------
     ethr =  2.26E-05,  avg # of iterations =  1.7

     negative rho (up, down):  7.439E-04 0.000E+00

     total cpu time spent up to now is      106.8 secs

     total energy              =    -344.31172647 Ry
     Harris-Foulkes estimate   =    -344.31191858 Ry
     estimated scf accuracy    <       0.00417016 Ry
 
     Band energy sum           =     -29.36944956 Ry

     iteration #  9     ecut=    50.00 Ry     beta= 0.70
     Davidson diagonalization with overlap

---- Real-time Memory Report at c_bands before calling an iterative solver
           745 MiB given to the printing process from OS
          1788 MiB allocation reported by mallinfo(arena+hblkhd)
         28832 MiB available memory on the node where the printing process lives
------------------
     ethr =  1.19E-05,  avg # of iterations =  1.2

     negative rho (up, down):  7.614E-04 0.000E+00

     total cpu time spent up to now is      108.7 secs

     total energy              =    -344.31102152 Ry
     Harris-Foulkes estimate   =    -344.31174929 Ry
     estimated scf accuracy    <       0.00319686 Ry
 
     Band energy sum           =     -29.40439016 Ry

     iteration # 10     ecut=    50.00 Ry     beta= 0.70
     Davidson diagonalization with overlap

---- Real-time Memory Report at c_bands before calling an iterative solver
           745 MiB given to the printing process from OS
          1831 MiB allocation reported by mallinfo(arena+hblkhd)
         28829 MiB available memory on the node where the printing process lives
------------------
     ethr =  9.13E-06,  avg # of iterations =  2.0

     negative rho (up, down):  7.700E-04 0.000E+00

     total cpu time spent up to now is      110.9 secs

     total energy              =    -344.31111522 Ry
     Harris-Foulkes estimate   =    -344.31123567 Ry
     estimated scf accuracy    <       0.00038207 Ry
 
     Band energy sum           =     -29.53791620 Ry

     iteration # 11     ecut=    50.00 Ry     beta= 0.70
     Davidson diagonalization with overlap

---- Real-time Memory Report at c_bands before calling an iterative solver
           745 MiB given to the printing process from OS
          1844 MiB allocation reported by mallinfo(arena+hblkhd)
         28828 MiB available memory on the node where the printing process lives
------------------
     ethr =  1.09E-06,  avg # of iterations =  4.0

     negative rho (up, down):  7.702E-04 0.000E+00

     total cpu time spent up to now is      113.0 secs

     total energy              =    -344.31118124 Ry
     Harris-Foulkes estimate   =    -344.31118128 Ry
     estimated scf accuracy    <       0.00000134 Ry
 
     Band energy sum           =     -29.60651613 Ry

     iteration # 12     ecut=    50.00 Ry     beta= 0.70
     Davidson diagonalization with overlap

---- Real-time Memory Report at c_bands before calling an iterative solver
           745 MiB given to the printing process from OS
          1856 MiB allocation reported by mallinfo(arena+hblkhd)
         28826 MiB available memory on the node where the printing process lives
------------------
     ethr =  3.83E-09,  avg # of iterations =  5.3

     negative rho (up, down):  7.693E-04 0.000E+00

     total cpu time spent up to now is      117.2 secs

     total energy              =    -344.31118141 Ry
     Harris-Foulkes estimate   =    -344.31118196 Ry
     estimated scf accuracy    <       0.00000149 Ry
 
     Band energy sum           =     -29.60982643 Ry

     iteration # 13     ecut=    50.00 Ry     beta= 0.70
     Davidson diagonalization with overlap

---- Real-time Memory Report at c_bands before calling an iterative solver
           745 MiB given to the printing process from OS
          1931 MiB allocation reported by mallinfo(arena+hblkhd)
         28822 MiB available memory on the node where the printing process lives
------------------
     ethr =  3.83E-09,  avg # of iterations =  2.3

     negative rho (up, down):  7.680E-04 0.000E+00

     total cpu time spent up to now is      119.5 secs

     total energy              =    -344.31118169 Ry
     Harris-Foulkes estimate   =    -344.31118167 Ry
     estimated scf accuracy    <       0.00000029 Ry
 
     Band energy sum           =     -29.60613036 Ry

     iteration # 14     ecut=    50.00 Ry     beta= 0.70
     Davidson diagonalization with overlap

---- Real-time Memory Report at c_bands before calling an iterative solver
           753 MiB given to the printing process from OS
          1940 MiB allocation reported by mallinfo(arena+hblkhd)
         28821 MiB available memory on the node where the printing process lives
------------------
     ethr =  8.26E-10,  avg # of iterations =  3.5

     negative rho (up, down):  7.673E-04 0.000E+00

     total cpu time spent up to now is      123.2 secs

     total energy              =    -344.31118182 Ry
     Harris-Foulkes estimate   =    -344.31118184 Ry
     estimated scf accuracy    <       0.00000134 Ry
 
     Band energy sum           =     -29.60324574 Ry

     iteration # 15     ecut=    50.00 Ry     beta= 0.70
     Davidson diagonalization with overlap

---- Real-time Memory Report at c_bands before calling an iterative solver
           753 MiB given to the printing process from OS
          1985 MiB allocation reported by mallinfo(arena+hblkhd)
         28818 MiB available memory on the node where the printing process lives
------------------
     ethr =  8.26E-10,  avg # of iterations =  1.0

     negative rho (up, down):  7.669E-04 0.000E+00

     total cpu time spent up to now is      125.1 secs

     total energy              =    -344.31118161 Ry
     Harris-Foulkes estimate   =    -344.31118183 Ry
     estimated scf accuracy    <       0.00000118 Ry
 
     Band energy sum           =     -29.60263141 Ry

     iteration # 16     ecut=    50.00 Ry     beta= 0.70
     Davidson diagonalization with overlap

---- Real-time Memory Report at c_bands before calling an iterative solver
           753 MiB given to the printing process from OS
          2006 MiB allocation reported by mallinfo(arena+hblkhd)
         28818 MiB available memory on the node where the printing process lives
------------------
     ethr =  8.26E-10,  avg # of iterations =  2.5

     negative rho (up, down):  7.668E-04 0.000E+00

     total cpu time spent up to now is      127.2 secs

     total energy              =    -344.31118166 Ry
     Harris-Foulkes estimate   =    -344.31118167 Ry
     estimated scf accuracy    <       0.00000021 Ry
 
     Band energy sum           =     -29.60393226 Ry

     iteration # 17     ecut=    50.00 Ry     beta= 0.70
     Davidson diagonalization with overlap

---- Real-time Memory Report at c_bands before calling an iterative solver
           753 MiB given to the printing process from OS
          2018 MiB allocation reported by mallinfo(arena+hblkhd)
         28818 MiB available memory on the node where the printing process lives
------------------
     ethr =  5.88E-10,  avg # of iterations =  1.0

     negative rho (up, down):  7.668E-04 0.000E+00

     total cpu time spent up to now is      129.4 secs

     total energy              =    -344.31118164 Ry
     Harris-Foulkes estimate   =    -344.31118166 Ry
     estimated scf accuracy    <       0.00000015 Ry
 
     Band energy sum           =     -29.60414358 Ry

     iteration # 18     ecut=    50.00 Ry     beta= 0.70
     Davidson diagonalization with overlap

---- Real-time Memory Report at c_bands before calling an iterative solver
           753 MiB given to the printing process from OS
          2022 MiB allocation reported by mallinfo(arena+hblkhd)
         28819 MiB available memory on the node where the printing process lives
------------------
     ethr =  4.21E-10,  avg # of iterations =  1.1

     negative rho (up, down):  7.670E-04 0.000E+00

     total cpu time spent up to now is      131.1 secs

     total energy              =    -344.31118163 Ry
     Harris-Foulkes estimate   =    -344.31118165 Ry
     estimated scf accuracy    <       0.00000006 Ry
 
     Band energy sum           =     -29.60462642 Ry

     iteration # 19     ecut=    50.00 Ry     beta= 0.70
     Davidson diagonalization with overlap

---- Real-time Memory Report at c_bands before calling an iterative solver
           753 MiB given to the printing process from OS
          2031 MiB allocation reported by mallinfo(arena+hblkhd)
         28818 MiB available memory on the node where the printing process lives
------------------
     ethr =  1.86E-10,  avg # of iterations =  2.2

     negative rho (up, down):  7.670E-04 0.000E+00

     total cpu time spent up to now is      133.4 secs

     total energy              =    -344.31118163 Ry
     Harris-Foulkes estimate   =    -344.31118163 Ry
     estimated scf accuracy    <          5.8E-10 Ry
 
     Band energy sum           =     -29.60541031 Ry

     iteration # 20     ecut=    50.00 Ry     beta= 0.70
     Davidson diagonalization with overlap

---- Real-time Memory Report at c_bands before calling an iterative solver
           753 MiB given to the printing process from OS
          2031 MiB allocation reported by mallinfo(arena+hblkhd)
         28818 MiB available memory on the node where the printing process lives
------------------
     ethr =  1.65E-12,  avg # of iterations =  5.5

     negative rho (up, down):  7.670E-04 0.000E+00

     total cpu time spent up to now is      137.4 secs

     total energy              =    -344.31118163 Ry
     Harris-Foulkes estimate   =    -344.31118163 Ry
     estimated scf accuracy    <          2.4E-11 Ry
 
     Band energy sum           =     -29.60547535 Ry

     iteration # 21     ecut=    50.00 Ry     beta= 0.70
     Davidson diagonalization with overlap

---- Real-time Memory Report at c_bands before calling an iterative solver
           753 MiB given to the printing process from OS
         -2027 MiB allocation reported by mallinfo(arena+hblkhd)
         28815 MiB available memory on the node where the printing process lives
------------------
     ethr =  1.00E-13,  avg # of iterations =  2.6

     negative rho (up, down):  7.670E-04 0.000E+00

     total cpu time spent up to now is      140.6 secs

     End of self-consistent calculation

          k = 0.0000 0.0000 0.0000 (  1697 PWs)   bands (ev):

   -61.1180 -40.9997 -32.4360 -32.4360 -32.3978 -13.0131 -12.9171 -12.9171
    -8.9945  -7.5156   4.0681   5.5579   5.5579   7.7880   8.1110   8.1110
    10.7206  10.7206  11.6193  13.6759  13.7525  13.7525

     occupation numbers 
     1.0000   1.0000   1.0000   1.0000   1.0000   1.0000   1.0000   1.0000
     1.0000   1.0000   1.0000   1.0000   1.0000   0.9998   0.9995   0.9995
     0.7144   0.7144   0.3564   0.0061   0.0049   0.0049

          k = 0.0000-0.5392 0.0877 (  1707 PWs)   bands (ev):

   -61.1088 -40.9880 -32.5231 -32.4552 -32.3811 -13.0504 -12.9655 -12.9423
    -8.4441  -7.6137   4.7554   5.1072   5.8457   5.9428   7.3445   7.9053
    10.8253  11.3565  11.7145  12.9796  13.6502  15.8304

     occupation numbers 
     1.0000   1.0000   1.0000   1.0000   1.0000   1.0000   1.0000   1.0000
     1.0000   1.0000   1.0000   1.0000   1.0000   1.0000   1.0000   0.9998
     0.6763   0.4622   0.3203   0.0374   0.0066   0.0000

          k =-0.0000 1.0784-0.1755 (  1692 PWs)   bands (ev):

   -61.0996 -40.9759 -32.6091 -32.4743 -32.3644 -13.1757 -12.9674 -12.9169
    -7.8372  -7.7181   4.0362   5.2173   5.9906   6.1084   6.9363   7.0172
    10.6304  11.5103  11.6631  13.4370  13.7839  18.5730

     occupation numbers 
     1.0000   1.0000   1.0000   1.0000   1.0000   1.0000   1.0000   1.0000
     1.0000   1.0000   1.0000   1.0000   1.0000   1.0000   1.0000   1.0000
     0.7453   0.3995   0.3396   0.0120   0.0044   0.0000

          k =-0.4670-0.2696 0.1755 (  1716 PWs)   bands (ev):

   -61.1088 -40.9882 -32.5231 -32.4552 -32.3811 -13.0505 -12.9668 -12.9422
    -8.4103  -7.6502   4.8479   5.0040   5.8560   5.9964   7.3303   7.8559
    10.7981  11.3498  11.6632  13.1989  13.6647  15.6112

     occupation numbers 
     1.0000   1.0000   1.0000   1.0000   1.0000   1.0000   1.0000   1.0000
     1.0000   1.0000   1.0000   1.0000   1.0000   1.0000   1.0000   0.9998
     0.6864   0.4650   0.3396   0.0222   0.0063   0.0000

          k =-0.4670 1.3480-0.0877 (  1694 PWs)   bands (ev):

   -61.0996 -40.9760 -32.5755 -32.5082 -32.3645 -13.1233 -13.0193 -12.9176
    -7.8516  -7.7066   4.6583   4.8461   5.7897   6.2002   6.4072   7.2242
    11.0164  11.4954  11.5792  13.3293  13.4695  17.7494

     occupation numbers 
     1.0000   1.0000   1.0000   1.0000   1.0000   1.0000   1.0000   1.0000
     1.0000   1.0000   1.0000   1.0000   1.0000   1.0000   1.0000   1.0000
     0.6021   0.4055   0.3721   0.0160   0.0110   0.0000

          k =-0.4670 0.8088 0.0000 (  1696 PWs)   bands (ev):

   -61.0996 -40.9760 -32.5755 -32.5082 -32.3645 -13.1238 -13.0194 -12.9171
    -7.8537  -7.7058   4.6702   4.9672   5.7699   6.0847   6.4208   7.1437
    11.0642  11.5476  11.5715  13.2629  13.5307  17.8535

     occupation numbers 
     1.0000   1.0000   1.0000   1.0000   1.0000   1.0000   1.0000   1.0000
     1.0000   1.0000   1.0000   1.0000   1.0000   1.0000   1.0000   1.0000
     0.5828   0.3846   0.3751   0.0189   0.0093   0.0000

          k = 0.9339 0.5392-0.3510 (  1702 PWs)   bands (ev):

   -61.0996 -40.9761 -32.6091 -32.4743 -32.3644 -13.1737 -12.9673 -12.9168
    -7.8917  -7.6609   3.8085   5.1320   5.9924   6.3854   7.0122   7.2085
    10.4472  11.5098  11.6686  13.5618  13.7990  17.1240

     occupation numbers 
     1.0000   1.0000   1.0000   1.0000   1.0000   1.0000   1.0000   1.0000
     1.0000   1.0000   1.0000   1.0000   1.0000   1.0000   1.0000   1.0000
     0.8024   0.3997   0.3375   0.0085   0.0042   0.0000

          k = 0.0000-0.0000 0.2632 (  1709 PWs)   bands (ev):

   -61.1180 -40.9999 -32.4360 -32.4360 -32.3977 -13.0232 -12.9171 -12.9171
    -8.9046  -7.6137   4.3629   5.5706   5.5706   7.2277   8.0838   8.0838
    10.7239  10.7239  11.6438  13.7714  13.7714  14.3596

     occupation numbers 
     1.0000   1.0000   1.0000   1.0000   1.0000   1.0000   1.0000   1.0000
     1.0000   1.0000   1.0000   1.0000   1.0000   1.0000   0.9995   0.9995
     0.7132   0.7132   0.3470   0.0046   0.0046   0.0006

          k =-0.0000 1.6176-0.0000 (  1710 PWs)   bands (ev):

   -61.1088 -40.9881 -32.5231 -32.4552 -32.3811 -13.0490 -12.9710 -12.9423
    -8.3905  -7.6659   4.6054   5.2287   5.8537   6.1260   7.3322   7.7733
    10.7435  11.3565  11.7442  12.7279  13.6583  16.5246

     occupation numbers 
     1.0000   1.0000   1.0000   1.0000   1.0000   1.0000   1.0000   1.0000
     1.0000   1.0000   1.0000   1.0000   1.0000   1.0000   1.0000   0.9999
     0.7062   0.4622   0.3093   0.0642   0.0064   0.0000

          k =-0.0000 1.0784 0.0877 (  1694 PWs)   bands (ev):

   -61.0996 -40.9760 -32.6091 -32.4743 -32.3644 -13.1747 -12.9673 -12.9169
    -7.8688  -7.6852   3.9153   5.1730   5.9915   6.2549   7.0147   7.0702
    10.5422  11.5101  11.6656  13.4922  13.7915  17.6421

     occupation numbers 
     1.0000   1.0000   1.0000   1.0000   1.0000   1.0000   1.0000   1.0000
     1.0000   1.0000   1.0000   1.0000   1.0000   1.0000   1.0000   1.0000
     0.7738   0.3996   0.3387   0.0103   0.0043   0.0000

          k = 1.4009 0.8088-0.2632 (  1720 PWs)   bands (ev):

   -61.1088 -40.9883 -32.5231 -32.4552 -32.3811 -13.0491 -12.9723 -12.9423
    -8.3510  -7.7080   4.6551   5.1516   5.8642   6.2228   7.3178   7.6906
    10.7245  11.3498  11.6831  12.9235  13.6727  16.2900

     occupation numbers 
     1.0000   1.0000   1.0000   1.0000   1.0000   1.0000   1.0000   1.0000
     1.0000   1.0000   1.0000   1.0000   1.0000   1.0000   1.0000   0.9999
     0.7130   0.4650   0.3321   0.0424   0.0062   0.0000

          k = 1.4009 0.2696-0.1755 (  1700 PWs)   bands (ev):

   -61.0996 -40.9761 -32.5755 -32.5082 -32.3645 -13.1228 -13.0193 -12.9181
    -7.8494  -7.7075   4.6923   4.6971   5.8057   6.2930   6.4054   7.3039
    10.9681  11.4466  11.5815  13.3757  13.4316  17.6823

     occupation numbers 
     1.0000   1.0000   1.0000   1.0000   1.0000   1.0000   1.0000   1.0000
     1.0000   1.0000   1.0000   1.0000   1.0000   1.0000   1.0000   1.0000
     0.6213   0.4253   0.3712   0.0141   0.0122   0.0000

          k =-0.0000 0.0000-0.5265 (  1696 PWs)   bands (ev):

   -61.1180 -40.9997 -32.4360 -32.4360 -32.3976 -13.0331 -12.9171 -12.9171
    -8.7996  -7.7268   4.7826   5.5835   5.5835   6.5856   8.0565   8.0565
    10.7271  10.7271  11.6489  13.7904  13.7904  15.3815

     occupation numbers 
     1.0000   1.0000   1.0000   1.0000   1.0000   1.0000   1.0000   1.0000
     1.0000   1.0000   1.0000   1.0000   1.0000   1.0000   0.9996   0.9996
     0.7120   0.7120   0.3451   0.0043   0.0043   0.0000

     the Fermi energy is    11.2653 ev

!    total energy              =    -344.31118163 Ry
     Harris-Foulkes estimate   =    -344.31118163 Ry
     estimated scf accuracy    <          1.2E-12 Ry
     smearing contrib. (-TS)   =      -0.16763513 Ry
     internal energy E=F+TS    =    -344.14354650 Ry

     The total energy is F=E-TS. E is the sum of the following terms:
     one-electron contribution =    -149.48740189 Ry
     hartree contribution      =      90.87370393 Ry
     xc contribution           =     -49.98013125 Ry
     ewald contribution        =    -216.52240536 Ry
     one-center paw contrib.   =     -19.02731194 Ry
      -> PAW hartree energy AE =      53.13209020 Ry
      -> PAW hartree energy PS =     -52.87895915 Ry
      -> PAW xc energy AE      =     -33.47347502 Ry
      -> PAW xc energy PS      =      14.19303204 Ry
      -> total E_H with PAW    =      91.12683498 Ry
      -> total E_XC with PAW   =     -69.26057423 Ry
 
     Band energy sum           =     -29.60544580 Ry

     convergence has been achieved in  21 iterations

     evp_work_count     :       7874
     num_loc_op_applied :      26256

     negative rho (up, down):  7.670E-04 0.000E+00

     Forces acting on atoms (cartesian axes, Ry/au):

     atom    1 type  1   force =     0.00000000   -0.00000000   -0.00000000
     atom    2 type  2   force =     0.00000000    0.00000000    0.00000000
     atom    3 type  3   force =     0.00000000   -0.00000000    0.00791178
     atom    4 type  3   force =    -0.00000000    0.00000000   -0.00791178
     The non-local contrib.  to forces
     atom    1 type  1   force =     0.00000000    0.00000000   -0.00000000
     atom    2 type  2   force =     0.00000000    0.00000000    0.00000000
     atom    3 type  3   force =    -0.00000000    0.00000000   -0.53766759
     atom    4 type  3   force =     0.00000000   -0.00000000    0.53766759
     The ionic contribution  to forces
     atom    1 type  1   force =     0.00000000    0.00000000   -0.00000000
     atom    2 type  2   force =    -0.00000000    0.00000000    0.00000000
     atom    3 type  3   force =     0.00000000    0.00000000   11.05717295
     atom    4 type  3   force =     0.00000000   -0.00000000  -11.05717295
     The local contribution  to forces
     atom    1 type  1   force =    -0.00000000   -0.00000000    0.00000002
     atom    2 type  2   force =    -0.00000000   -0.00000000    0.00000001
     atom    3 type  3   force =    -0.00000000   -0.00000000  -10.51706843
     atom    4 type  3   force =    -0.00000000    0.00000000   10.51706843
     The core correction contribution to forces
     atom    1 type  1   force =     0.00000000   -0.00000000   -0.00000000
     atom    2 type  2   force =     0.00000000    0.00000000    0.00000000
     atom    3 type  3   force =    -0.00000000   -0.00000000    0.00547661
     atom    4 type  3   force =    -0.00000000    0.00000000   -0.00547661
     The Hubbard contrib.    to forces
     atom    1 type  1   force =     0.00000000    0.00000000    0.00000000
     atom    2 type  2   force =     0.00000000    0.00000000    0.00000000
     atom    3 type  3   force =     0.00000000    0.00000000    0.00000000
     atom    4 type  3   force =     0.00000000    0.00000000    0.00000000
     The SCF correction term to forces
     atom    1 type  1   force =     0.00000000    0.00000000    0.00000000
     atom    2 type  2   force =     0.00000000    0.00000000    0.00000000
     atom    3 type  3   force =     0.00000000   -0.00000000   -0.00000175
     atom    4 type  3   force =     0.00000000    0.00000000    0.00000175

     Total force =     0.011189     Total SCF correction =     0.000002


     Computing stress (Cartesian axis) and pressure


     negative rho (up, down):  7.670E-04 0.000E+00
          total   stress  (Ry/bohr**3)                   (kbar)     P=       -9.54
  -0.00014197  -0.00000000   0.00000000          -20.89       -0.00        0.00
   0.00000000  -0.00014197  -0.00000000            0.00      -20.89       -0.00
   0.00000000  -0.00000000   0.00008944            0.00       -0.00       13.16

     kinetic stress (kbar)  40479.99     -0.00      0.00
                               -0.00  40479.99     -0.00
                               -0.00     -0.00  40929.44

     local   stress (kbar) -20954.09     -0.00     -0.00
                               -0.00 -20954.09     -0.00
                               -0.00     -0.00  14635.71

     nonloc. stress (kbar)  -1310.82     -0.00     -0.00
                               -0.00  -1310.82      0.00
                                0.00      0.00  -1307.48

     hartree stress (kbar)  21072.14      0.00      0.00
                                0.00  21072.14      0.00
                                0.00      0.00   5556.17

     exc-cor stress (kbar)  -6454.26     -0.00      0.00
                               -0.00  -6454.26     -0.00
                                0.00     -0.00  -6462.07

     corecor stress (kbar)  -1796.67     -0.00     -0.00
                               -0.00  -1796.67      0.00
                               -0.00      0.00  -1798.39

     ewald   stress (kbar) -31057.19      0.00      0.00
                                0.00 -31057.19      0.00
                                0.00      0.00 -51540.23

     hubbard stress (kbar)      0.00      0.00      0.00
                                0.00      0.00      0.00
                                0.00      0.00      0.00

     DFT-D   stress (kbar)      0.00      0.00      0.00
                                0.00      0.00      0.00
                                0.00      0.00      0.00

     XDM     stress (kbar)      0.00      0.00      0.00
                                0.00      0.00      0.00
                                0.00      0.00      0.00

     dft-nl  stress (kbar)      0.00      0.00      0.00
                                0.00      0.00      0.00
                                0.00      0.00      0.00

     TS-vdW  stress (kbar)      0.00      0.00      0.00
                                0.00      0.00      0.00
                                0.00      0.00      0.00


                                0.00      0.00      0.00
                                0.00      0.00      0.00


                                0.00      0.00      0.00

     Energy error            =      1.2E-03 Ry
     Gradient error          =      7.9E-03 Ry/Bohr
     Cell gradient error     =      2.1E+01 kbar

     number of scf cycles    =   2
     number of bfgs steps    =   1

     enthalpy           old  =    -344.3099767927 Ry
     enthalpy           new  =    -344.3111816340 Ry

     CASE: enthalpy          _new < enthalpy          _old

     new trust radius        =       0.0288629240 bohr
     new conv_thr            =            1.0E-11 Ry

     new unit-cell volume =    276.46345 a.u.^3 (    40.96766 Ang^3 )
     density =      4.33640 g/cm^3

CELL_PARAMETERS (angstrom)
   1.487661697   0.858901881   5.343700818
  -1.487661697   0.858901881   5.343700818
   0.000000000  -1.717803762   5.343700818

ATOMIC_POSITIONS (angstrom)
Cr            0.0000000000       -0.0000000000        8.0155512268
Na            0.0000000000       -0.0000000000       16.0311024535
O             0.0000000000       -0.0000000000        3.7184478945
O             0.0000000000       -0.0000000000       12.3126545591



     Writing config-only to output data dir ./out/aiida.save/
     NEW-OLD atomic charge density approx. for the potential

     Check: negative core charge=   -0.000003

     negative rho (up, down):  7.541E-04 0.000E+00
     extrapolated charge   34.53637, renormalised to   35.00000

     total cpu time spent up to now is      155.9 secs

     Self-consistent Calculation

     iteration #  1     ecut=    50.00 Ry     beta= 0.70
     Davidson diagonalization with overlap

---- Real-time Memory Report at c_bands before calling an iterative solver
           792 MiB given to the printing process from OS
         -1950 MiB allocation reported by mallinfo(arena+hblkhd)
         28814 MiB available memory on the node where the printing process lives
------------------
     ethr =  1.00E-06,  avg # of iterations =  7.8

     negative rho (up, down):  3.884E-04 0.000E+00

     total cpu time spent up to now is      162.3 secs

     total energy              =    -344.14420758 Ry
     Harris-Foulkes estimate   =    -345.90681616 Ry
     estimated scf accuracy    <       0.15465102 Ry
 
     Band energy sum           =     -31.33992183 Ry

     iteration #  2     ecut=    50.00 Ry     beta= 0.70
     Davidson diagonalization with overlap

---- Real-time Memory Report at c_bands before calling an iterative solver
           792 MiB given to the printing process from OS
         -1940 MiB allocation reported by mallinfo(arena+hblkhd)
         28808 MiB available memory on the node where the printing process lives
------------------
     ethr =  4.42E-04,  avg # of iterations =  5.6

     negative rho (up, down):  6.250E-04 0.000E+00

     total cpu time spent up to now is      166.6 secs

     total energy              =    -344.09398863 Ry
     Harris-Foulkes estimate   =    -344.68291180 Ry
     estimated scf accuracy    <       2.40321989 Ry
 
     Band energy sum           =     -25.79067129 Ry

     iteration #  3     ecut=    50.00 Ry     beta= 0.70
     Davidson diagonalization with overlap

---- Real-time Memory Report at c_bands before calling an iterative solver
           792 MiB given to the printing process from OS
         -1906 MiB allocation reported by mallinfo(arena+hblkhd)
         28808 MiB available memory on the node where the printing process lives
------------------
     ethr =  4.42E-04,  avg # of iterations =  4.5

     negative rho (up, down):  6.870E-04 0.000E+00

     total cpu time spent up to now is      170.1 secs

     total energy              =    -344.31668821 Ry
     Harris-Foulkes estimate   =    -344.32799883 Ry
     estimated scf accuracy    <       0.08342301 Ry
 
     Band energy sum           =     -28.04034520 Ry

     iteration #  4     ecut=    50.00 Ry     beta= 0.70
     Davidson diagonalization with overlap

---- Real-time Memory Report at c_bands before calling an iterative solver
           792 MiB given to the printing process from OS
         -1880 MiB allocation reported by mallinfo(arena+hblkhd)
         28805 MiB available memory on the node where the printing process lives
------------------
     ethr =  2.38E-04,  avg # of iterations =  1.3

     negative rho (up, down):  7.083E-04 0.000E+00

     total cpu time spent up to now is      172.2 secs

     total energy              =    -344.31499955 Ry
     Harris-Foulkes estimate   =    -344.31838801 Ry
     estimated scf accuracy    <       0.03717972 Ry
 
     Band energy sum           =     -28.43433326 Ry

     iteration #  5     ecut=    50.00 Ry     beta= 0.70
     Davidson diagonalization with overlap

---- Real-time Memory Report at c_bands before calling an iterative solver
           792 MiB given to the printing process from OS
         -1880 MiB allocation reported by mallinfo(arena+hblkhd)
         28806 MiB available memory on the node where the printing process lives
------------------
     ethr =  1.06E-04,  avg # of iterations =  1.6

     negative rho (up, down):  7.291E-04 0.000E+00

     total cpu time spent up to now is      174.2 secs

     total energy              =    -344.31340646 Ry
     Harris-Foulkes estimate   =    -344.31559362 Ry
     estimated scf accuracy    <       0.02021723 Ry
 
     Band energy sum           =     -28.62731445 Ry

     iteration #  6     ecut=    50.00 Ry     beta= 0.70
     Davidson diagonalization with overlap

---- Real-time Memory Report at c_bands before calling an iterative solver
           792 MiB given to the printing process from OS
         -1871 MiB allocation reported by mallinfo(arena+hblkhd)
         28806 MiB available memory on the node where the printing process lives
------------------
     ethr =  5.78E-05,  avg # of iterations =  1.2

     negative rho (up, down):  7.465E-04 0.000E+00

     total cpu time spent up to now is      176.3 secs

     total energy              =    -344.31225784 Ry
     Harris-Foulkes estimate   =    -344.31367803 Ry
     estimated scf accuracy    <       0.01010769 Ry
 
     Band energy sum           =     -28.77452997 Ry

     iteration #  7     ecut=    50.00 Ry     beta= 0.70
     Davidson diagonalization with overlap

---- Real-time Memory Report at c_bands before calling an iterative solver
           792 MiB given to the printing process from OS
         -1875 MiB allocation reported by mallinfo(arena+hblkhd)
         28805 MiB available memory on the node where the printing process lives
------------------
     ethr =  2.89E-05,  avg # of iterations =  1.8

     negative rho (up, down):  7.513E-04 0.000E+00

     total cpu time spent up to now is      178.1 secs

     total energy              =    -344.31228023 Ry
     Harris-Foulkes estimate   =    -344.31251402 Ry
     estimated scf accuracy    <       0.00371246 Ry
 
     Band energy sum           =     -28.91752872 Ry

     iteration #  8     ecut=    50.00 Ry     beta= 0.70
     Davidson diagonalization with overlap

---- Real-time Memory Report at c_bands before calling an iterative solver
           792 MiB given to the printing process from OS
         -1869 MiB allocation reported by mallinfo(arena+hblkhd)
         28803 MiB available memory on the node where the printing process lives
------------------
     ethr =  1.06E-05,  avg # of iterations =  1.5

     negative rho (up, down):  7.673E-04 0.000E+00

     total cpu time spent up to now is      180.1 secs

     total energy              =    -344.31171779 Ry
     Harris-Foulkes estimate   =    -344.31230362 Ry
     estimated scf accuracy    <       0.00258309 Ry
 
     Band energy sum           =     -28.95831311 Ry

     iteration #  9     ecut=    50.00 Ry     beta= 0.70
     Davidson diagonalization with overlap

---- Real-time Memory Report at c_bands before calling an iterative solver
           792 MiB given to the printing process from OS
         -1869 MiB allocation reported by mallinfo(arena+hblkhd)
         28803 MiB available memory on the node where the printing process lives
------------------
     ethr =  7.38E-06,  avg # of iterations =  2.0

     negative rho (up, down):  7.731E-04 0.000E+00

     total cpu time spent up to now is      182.1 secs

     total energy              =    -344.31179675 Ry
     Harris-Foulkes estimate   =    -344.31188427 Ry
     estimated scf accuracy    <       0.00034114 Ry
 
     Band energy sum           =     -29.08430161 Ry

     iteration # 10     ecut=    50.00 Ry     beta= 0.70
     Davidson diagonalization with overlap

---- Real-time Memory Report at c_bands before calling an iterative solver
           792 MiB given to the printing process from OS
         -1864 MiB allocation reported by mallinfo(arena+hblkhd)
         28803 MiB available memory on the node where the printing process lives
------------------
     ethr =  9.75E-07,  avg # of iterations =  3.8

     negative rho (up, down):  7.729E-04 0.000E+00

     total cpu time spent up to now is      184.5 secs

     total energy              =    -344.31183287 Ry
     Harris-Foulkes estimate   =    -344.31183605 Ry
     estimated scf accuracy    <       0.00001090 Ry
 
     Band energy sum           =     -29.13347841 Ry

     iteration # 11     ecut=    50.00 Ry     beta= 0.70
     Davidson diagonalization with overlap

---- Real-time Memory Report at c_bands before calling an iterative solver
           792 MiB given to the printing process from OS
         -1860 MiB allocation reported by mallinfo(arena+hblkhd)
         28804 MiB available memory on the node where the printing process lives
------------------
     ethr =  3.11E-08,  avg # of iterations =  3.7

     negative rho (up, down):  7.719E-04 0.000E+00

     total cpu time spent up to now is      188.3 secs

     total energy              =    -344.31183482 Ry
     Harris-Foulkes estimate   =    -344.31183478 Ry
     estimated scf accuracy    <       0.00000033 Ry
 
     Band energy sum           =     -29.14480505 Ry

     iteration # 12     ecut=    50.00 Ry     beta= 0.70
     Davidson diagonalization with overlap

---- Real-time Memory Report at c_bands before calling an iterative solver
           792 MiB given to the printing process from OS
         -1839 MiB allocation reported by mallinfo(arena+hblkhd)
         28800 MiB available memory on the node where the printing process lives
------------------
     ethr =  9.41E-10,  avg # of iterations =  3.3

     negative rho (up, down):  7.714E-04 0.000E+00

     total cpu time spent up to now is      191.5 secs

     total energy              =    -344.31183480 Ry
     Harris-Foulkes estimate   =    -344.31183487 Ry
     estimated scf accuracy    <       0.00000036 Ry
 
     Band energy sum           =     -29.14510690 Ry

     iteration # 13     ecut=    50.00 Ry     beta= 0.70
     Davidson diagonalization with overlap

---- Real-time Memory Report at c_bands before calling an iterative solver
           792 MiB given to the printing process from OS
         -1814 MiB allocation reported by mallinfo(arena+hblkhd)
         28800 MiB available memory on the node where the printing process lives
------------------
     ethr =  9.41E-10,  avg # of iterations =  1.4

     negative rho (up, down):  7.717E-04 0.000E+00

     total cpu time spent up to now is      193.4 secs

     total energy              =    -344.31183480 Ry
[...]
      cegterg:diag                 5818       3.74 s        0.84       1.15     651.65 us     132.19 us       7.02 ms
       cdiaghg                    5818       3.69 s        0.83     100.00     644.14 us     127.54 us       7.01 ms
      cegterg:last                 3058      26.03 s        5.87     100.00       3.57 ms      37.56 us      22.27 ms
   sum_band                          107      56.97 s       12.85       1.06     526.41 ms     457.27 ms     623.07 ms
    sum_band:weights                107      31.75 ms       0.01     100.00     291.13 us     207.11 us     527.13 us
    sum_band:loop                   107       9.02 s        2.03      23.52      69.24 ms      59.84 ms     169.50 ms
     sum_band:buffer              1391     152.76 ms       0.03     100.00     105.75 us      91.63 us     631.51 us
     sum_band:init_us_2           1391       1.26 s        0.28       0.68     930.32 us     709.96 us       1.26 ms
      init_us_2                  1391       1.25 s        0.28     100.00     924.42 us     705.86 us       1.25 ms
     fftw                        30602       5.33 s        1.20     100.00     118.45 us     110.78 us      18.90 ms
     sum_band:calbec              1391     113.98 ms       0.03       7.44      75.64 us      68.33 us     319.87 us
      calbec                     1391     105.51 ms       0.02     100.00      69.72 us      62.41 us     312.68 us
     sum_band:becsum              1391      38.97 ms       0.01     100.00      25.66 us      19.58 us     144.50 us
    ffts                            107      37.20 ms       0.01     100.00     339.35 us     277.02 us     562.10 us
    PAW_symme                       107       4.13 ms       0.00     100.00      39.28 us      28.77 us      49.03 us
    addusdens                       107      45.44 s       10.25      26.61     428.36 ms     375.22 ms     466.60 ms
     addusd:skk                    214     107.37 ms       0.02     100.00     494.75 us     306.50 us       2.07 ms
     addusd:dgemm                  214       6.91 s        1.56     100.00      27.37 ms       5.53 ms      70.23 ms
     addusd:qvan2                  214      26.33 s        5.94     100.00     106.11 ms      27.01 ms     230.05 ms
    sum_band:sym_rho                107       1.84 s        0.41      87.27      16.84 ms      16.22 ms      22.82 ms
      fft                           107     233.62 ms       0.05     100.00       2.15 ms       2.02 ms       3.52 ms
   qe|mix                            107       2.49 s        0.56       0.13      23.72 ms     237.09 us      51.67 ms
    mix_rho                         107       2.49 s        0.56      74.90      23.69 ms     222.92 us      51.64 ms
      fft                           200     625.03 ms       0.14     100.00       2.16 ms       1.94 ms      16.66 ms
   v_of_rho                          107      27.43 s        6.19       0.01     253.85 ms     247.34 ms     285.47 ms
    v_xc                            107      26.14 s        5.90      94.00     242.00 ms     235.56 ms     269.80 ms
     fft                           749       1.57 s        0.35     100.00       2.06 ms       1.88 ms      10.84 ms
    v_h                             107       1.29 s        0.29      82.14      11.91 ms      10.55 ms      27.90 ms
      fft                           107     229.80 ms       0.05     100.00       2.01 ms       1.85 ms      16.00 ms
   PAW_pot                           107       2.02 s        0.45     100.00      18.82 ms      17.09 ms      21.62 ms
   PAW_symme                         107       3.17 ms       0.00     100.00      30.15 us      20.41 us      43.35 us
   interpolate                       107     657.44 ms       0.15      63.74       6.10 ms       5.80 ms       7.54 ms
    fft                             107     221.61 ms       0.05     100.00       2.06 ms       1.91 ms       2.39 ms
    ffts                            107      16.77 ms       0.00     100.00     147.40 us     130.55 us     237.85 us
   newd                              107      56.34 s       12.71      99.64     527.41 ms     489.64 ms     593.14 ms
     fft                             107     205.31 ms       0.05     100.00       1.90 ms       1.74 ms       2.64 ms
  ions                                  7      77.98 s       17.60       0.04      11.11 s       10.88 s       11.37 s 
   forces                              7      12.18 s        2.75       0.67       1.76 s        1.69 s        1.77 s 
    frc_us                            7       4.08 s        0.92      96.84     584.99 ms     567.29 ms     589.18 ms
     init_us_2                      91      85.58 ms       0.02     100.00     944.41 us     773.57 us       1.15 ms
     calbec                        364      28.66 ms       0.01     100.00      66.25 us      59.78 us     359.86 us
     fft                             7      14.52 ms       0.00     100.00       2.05 ms       2.00 ms       2.26 ms
    frc_lc                            7     121.62 ms       0.03      88.13      16.84 ms      15.55 ms      20.02 ms
     fft                             7      14.44 ms       0.00     100.00       2.05 ms       1.95 ms       2.24 ms
    frc_cc                            7       3.98 s        0.90      56.92     574.93 ms     547.69 ms     581.59 ms
     v_xc                            7       1.70 s        0.38      93.33     239.54 ms     234.88 ms     258.39 ms
      fft                          49     113.40 ms       0.03     100.00       2.05 ms       1.90 ms       8.72 ms
     fft                             7      14.35 ms       0.00     100.00       2.07 ms       2.00 ms       2.09 ms
    frc_scc                           7       3.93 s        0.89      99.63     561.42 ms     550.45 ms     568.86 ms
      fft                             7      14.47 ms       0.00     100.00       2.05 ms       2.03 ms       2.22 ms
   stress                              7      65.77 s       14.84      96.79       9.39 s        9.19 s        9.61 s 
     fft                              49     124.57 ms       0.03     100.00       2.07 ms       1.98 ms      16.16 ms
     v_xc                              7       1.71 s        0.38      94.12     241.53 ms     238.18 ms     257.42 ms
      fft                            49     100.29 ms       0.02     100.00       2.03 ms       1.87 ms       2.28 ms
     init_us_2                        91      86.80 ms       0.02     100.00     971.55 us     768.55 us       1.24 ms
     calbec                           91      85.82 ms       0.02     100.00     431.57 us     137.15 us       3.63 ms
     stres_us31                       91       1.58 ms       0.00     100.00      15.57 us      10.52 us      33.29 us
     stres_us32                       91      27.86 ms       0.01     100.00     321.83 us     203.63 us     409.52 us
     stres_us33                       91      56.96 ms       0.01     100.00     636.30 us     552.57 us     774.92 us
     stres_us34                       91      21.51 ms       0.00     100.00     236.69 us     180.15 us     291.21 us
  update_pot                            5      17.27 s        3.90      40.73       3.46 s        3.43 s        3.47 s 
   init_vloc                           5       8.81 s        1.99     100.00       1.76 s        1.73 s        1.78 s 
   fft                                15      30.72 ms       0.01     100.00       2.07 ms       1.92 ms       2.13 ms
   v_of_rho                            5       1.31 s        0.30       0.02     262.15 ms     257.34 ms     264.36 ms
    v_xc                              5       1.23 s        0.28      93.72     247.14 ms     242.51 ms     249.53 ms
     fft                            35      77.43 ms       0.02     100.00       2.20 ms       2.05 ms       2.58 ms
    v_h                               5      75.67 ms       0.02      86.38      14.97 ms      14.72 ms      15.75 ms
      fft                             5      10.31 ms       0.00     100.00       2.07 ms       1.95 ms       2.16 ms
   PAW_pot                             5      93.31 ms       0.02     100.00      18.50 ms      18.47 ms      19.27 ms
  qe|hinit1                             5       2.92 s        0.66       0.01     583.54 ms     576.12 ms     591.05 ms
   qe|setlocal                         5      67.00 ms       0.02      84.49      13.37 ms      13.13 ms      13.68 ms
    fft                               5      10.39 ms       0.00     100.00       2.04 ms       1.93 ms       2.21 ms
   qe|set_vrs                          5      46.42 ms       0.01      34.11       9.31 ms       9.22 ms       9.36 ms
    interpolate                       5      30.58 ms       0.01      63.88       6.12 ms       6.04 ms       6.22 ms
      fft                             5      10.33 ms       0.00     100.00       2.04 ms       1.99 ms       2.16 ms
      ffts                            5     714.06 us       0.00     100.00     138.22 us     136.84 us     151.77 us
   compute_becsum                      5      80.10 ms       0.02      12.02      16.08 ms      15.65 ms      16.60 ms
    init_us_2                        65      61.63 ms       0.01     100.00     941.57 us     894.67 us       1.15 ms
    sum_band:calbec                  65       6.96 ms       0.00       4.90      98.38 us      70.02 us     346.00 us
     calbec                         65       6.62 ms       0.00     100.00      93.68 us      65.14 us     339.54 us
    sum_band:becsum                  65       1.70 ms       0.00     100.00      24.63 us      22.24 us      43.23 us
    PAW_symme                         5     183.64 us       0.00     100.00      34.63 us      33.61 us      45.21 us
   PAW_pot                             5      90.50 ms       0.02     100.00      18.03 ms      17.86 ms      18.60 ms
   PAW_symme                           5     148.39 us       0.00     100.00      29.79 us      28.73 us      30.46 us
   newd                                5       2.64 s        0.60      99.64     527.25 ms     519.68 ms     534.17 ms
     fft                               5       9.50 ms       0.00     100.00       1.89 ms       1.88 ms       1.94 ms
  qe|punch                              1      29.86 ms       0.01     100.00      29.86 ms      29.86 ms      29.86 ms
 sirius::finalize                        1      30.71 us       0.00     100.00      30.71 us      30.71 us      30.71 us

=========================================================================================================================
===========================================================================================================
                            #         Total          %     Self %        Median           Min           Max
-----------------------------------------------------------------------------------------------------------
sirius                      1     443.19 s      100.00       0.00     443.19 s      443.19 s      443.19 s 
 PWSCF                     1     443.19 s      100.00     100.00     443.19 s      443.19 s      443.19 s 
 electrons                 7     335.01 s       75.59     100.00      49.66 s       37.27 s       60.82 s 
 c_bands                 107     168.25 s       37.96     100.00     913.12 ms     323.77 ms      10.35 s 
 cegterg                1391     165.27 s       37.29     100.00      82.98 ms      16.43 ms       1.14 s 
 h_psi_bgrp             5935     102.81 s       23.20     100.00       7.18 ms     348.73 us     167.25 ms
 h_psi                  5935     102.78 s       23.19     100.00       7.17 ms     345.69 us     167.25 ms
 h_psi:pot              5935      96.35 s       21.74     100.00       7.11 ms     335.51 us     163.97 ms
 vloc_psi               5935      94.62 s       21.35     100.00       6.94 ms     281.92 us     163.78 ms
 ions                      7      77.98 s       17.60     100.00      11.11 s       10.88 s       11.37 s 
 fftw                   194k      75.66 s       17.07     100.00     120.48 us     109.24 us      32.41 ms
 stress                    7      65.77 s       14.84     100.00       9.39 s        9.19 s        9.61 s 
 newd                    114      60.01 s       13.54     100.00     527.32 ms     489.64 ms     593.14 ms
 sum_band                107      56.97 s       12.85     100.00     526.41 ms     457.27 ms     623.07 ms
 addusdens               107      45.44 s       10.25     100.00     428.36 ms     375.22 ms     466.60 ms
 v_xc                    128      31.32 s        7.07     100.00     242.23 ms     234.88 ms     288.70 ms
 v_of_rho                114      29.31 s        6.61     100.00     254.29 ms     247.34 ms     300.92 ms
 addusd:qvan2            214      26.33 s        5.94     100.00     106.11 ms      27.01 ms     230.05 ms
 cegterg:last           3058      26.03 s        5.87     100.00       3.57 ms      37.56 us      22.27 ms
 cegterg:update         4518      17.66 s        3.98     100.00     121.91 us      24.97 us      12.04 ms
 update_pot                5      17.27 s        3.90     100.00       3.46 s        3.43 s        3.47 s 
 forces                    7      12.18 s        2.75     100.00       1.76 s        1.69 s        1.77 s 
 init_vloc                 7      11.86 s        2.68     100.00       1.75 s        1.50 s        1.78 s 
 init_run                  2       9.81 s        2.21     100.00       4.91 s        4.83 s        4.98 s 
 sum_band:loop           107       9.02 s        2.03     100.00      69.24 ms      59.84 ms     169.50 ms
 addusd:dgemm            214       6.91 s        1.56     100.00      27.37 ms       5.53 ms      70.23 ms
 hinit0                    2       6.65 s        1.50     100.00       3.32 s        3.28 s        3.36 s 
 g_psi                  4518       5.59 s        1.26     100.00      49.02 us       6.67 us       5.02 ms
 frc_us                    7       4.08 s        0.92     100.00     584.99 ms     567.29 ms     589.18 ms
 frc_cc                    7       3.98 s        0.90     100.00     574.93 ms     547.69 ms     581.59 ms
 frc_scc                   7       3.93 s        0.89     100.00     561.42 ms     550.45 ms     568.86 ms
 cegterg:diag           5818       3.74 s        0.84     100.00     651.65 us     132.19 us       7.02 ms
 cdiaghg                5844       3.70 s        0.83     100.00     640.23 us     127.54 us       7.01 ms
 fft                    1648       3.69 s        0.83     100.00       2.07 ms       1.74 ms      16.66 ms
 qe|hinit1                 5       2.92 s        0.66     100.00     583.54 ms     576.12 ms     591.05 ms
 init_us_2              3055       2.83 s        0.64     100.00     939.13 us     705.86 us       1.59 ms
 init_us_1                 2       2.63 s        0.59     100.00       1.32 s        1.31 s        1.32 s 
 qe|mix                  107       2.49 s        0.56     100.00      23.72 ms     237.09 us      51.67 ms
 mix_rho                 107       2.49 s        0.56     100.00      23.69 ms     222.92 us      51.64 ms
 PAW_pot                 119       2.24 s        0.50     100.00      18.76 ms      17.09 ms      21.62 ms
 sum_band:sym_rho        107       1.84 s        0.41     100.00      16.84 ms      16.22 ms      22.82 ms
 potinit                   2       1.71 s        0.39     100.00     855.88 ms     829.08 ms     882.69 ms
 v_h                     114       1.39 s        0.31     100.00      11.94 ms      10.55 ms      27.90 ms
 sum_band:init_us_2     1391       1.26 s        0.28     100.00     930.32 us     709.96 us       1.26 ms
 cegterg:overlap        4518       1.24 s        0.28     100.00     144.80 us      38.32 us       8.51 ms
 s_psi_bgrp             5935       1.16 s        0.26     100.00      83.39 us      19.28 us       6.99 ms
 calbec                 7846       1.09 s        0.25     100.00      70.74 us      20.95 us       3.83 ms
 h_psi:calbec           5935     898.38 ms       0.20     100.00      76.44 us      24.50 us       3.85 ms
 add_vuspsi             5935     766.30 ms       0.17     100.00      66.49 us      16.65 us       3.61 ms
 interpolate             114     701.04 ms       0.16     100.00       6.10 ms       5.80 ms       7.54 ms
 s_psi                  5935     650.94 ms       0.15     100.00      62.71 us      12.82 us       3.62 ms
 cegterg:init           1391     285.42 ms       0.06     100.00     198.16 us     146.28 us       6.31 ms
 wfcinit                   2     284.64 ms       0.06     100.00     142.32 ms     126.35 ms     158.29 ms
 wfcinit:wfcrot           26     232.99 ms       0.05     100.00       9.46 ms       7.51 ms      10.94 ms
 wfcrot                   26     232.90 ms       0.05     100.00       9.46 ms       7.51 ms      10.93 ms
 rotwfck                  26     232.79 ms       0.05     100.00       9.45 ms       7.51 ms      10.92 ms
 rotwfck:hpsi             26     216.50 ms       0.05     100.00       8.59 ms       6.89 ms      10.16 ms
 sum_band:buffer        1391     152.76 ms       0.03     100.00     105.75 us      91.63 us     631.51 us
 qe|setlocal               7     124.56 ms       0.03     100.00      13.48 ms      13.13 ms      31.49 ms
 frc_lc                    7     121.62 ms       0.03     100.00      16.84 ms      15.55 ms      20.02 ms
 sum_band:calbec        1456     120.95 ms       0.03     100.00      75.81 us      68.33 us     346.00 us
 addusd:skk              214     107.37 ms       0.02     100.00     494.75 us     306.50 us       2.07 ms
 compute_becsum            5      80.10 ms       0.02     100.00      16.08 ms      15.65 ms      16.60 ms
 qe|set_vrs                7      73.46 ms       0.02     100.00       9.31 ms       9.22 ms      13.72 ms
 stres_us33               91      56.96 ms       0.01     100.00     636.30 us     552.57 us     774.92 us
 ffts                    221      55.72 ms       0.01     100.00     219.78 us     130.55 us     722.98 us
 sum_band:becsum        1456      40.67 ms       0.01     100.00      25.61 us      19.58 us     144.50 us
 qe|paw_potential          2      38.30 ms       0.01     100.00      19.15 ms      18.36 ms      19.94 ms
 sum_band:weights        107      31.75 ms       0.01     100.00     291.13 us     207.11 us     527.13 us
 qe|punch                  1      29.86 ms       0.01     100.00      29.86 ms      29.86 ms      29.86 ms
 stres_us32               91      27.86 ms       0.01     100.00     321.83 us     203.63 us     409.52 us
 stres_us34               91      21.51 ms       0.00     100.00     236.69 us     180.15 us     291.21 us
 wfcinit:atomic           26      14.92 ms       0.00     100.00     578.05 us     474.47 us     600.59 us
 atomic_wfc               26      14.79 ms       0.00     100.00     573.25 us     469.94 us     595.33 us
 PAW_symme               226       7.73 ms       0.00     100.00      32.13 us      20.41 us      53.07 us
 rotwfck:hc               26       7.14 ms       0.00     100.00     270.28 us     261.39 us     326.88 us
 rotwfck:diag             26       4.94 ms       0.00     100.00     166.99 us     155.28 us     606.73 us
 qe|setup                  1       4.15 ms       0.00     100.00       4.15 ms       4.15 ms       4.15 ms
 rotwfck:evc              26       3.91 ms       0.00     100.00     145.89 us     138.81 us     184.49 us
 stres_us31               91       1.58 ms       0.00     100.00      15.57 us      10.52 us      33.29 us
 qe|paw_becsum             2     133.66 us       0.00     100.00      66.83 us      60.75 us      72.91 us
 sirius::initialize        1     131.96 us       0.00     100.00     131.96 us     131.96 us     131.96 us
 sirius::finalize          1      30.71 us       0.00     100.00      30.71 us      30.71 us      30.71 us

===========================================================================================================
Note: The following floating-point exceptions are signalling: IEEE_UNDERFLOW_FLAG IEEE_DENORMAL
