SIRIUS 7.2.8, git hash: 589ccf589dda66cbcce7b02683cba0c7a6e3f3ae

     Program PWSCF v.6.8 starts on 11Oct2021 at 12:25:20 

     This program is part of the open-source Quantum ESPRESSO suite
     for quantum simulation of materials; please cite
         "P. Giannozzi et al., J. Phys.:Condens. Matter 21 395502 (2009);
         "P. Giannozzi et al., J. Phys.:Condens. Matter 29 465901 (2017);
         "P. Giannozzi et al., J. Chem. Phys. 152 154105 (2020);
          URL http://www.quantum-espresso.org", 
     in publications or presentations arising from this work. More details at
     http://www.quantum-espresso.org/quote

     Parallel version (MPI & OpenMP), running on      16 processor cores
     Number of MPI processes:                 1
     Threads/MPI process:                    16

     MPI processes distributed on     1 nodes
     29088 MiB available memory on the printing compute node when the environment starts

     Reading input from aiida.in

     Current dimensions of program PWSCF are:
     Max number of different atomic species (ntypx) = 10
     Max number of k-points (npk) =  40000
     Max angular momentum in pseudopotentials (lmaxx) =  4
     file O.pbe-n-kjpaw_psl.0.1.UPF: wavefunction(s)  2P renormalized
     Message from routine setup:
     using ibrav=0 with symmetry is DISCOURAGED, use correct ibrav instead

     Subspace diagonalization in iterative solution of the eigenvalue problem:
     a serial algorithm will be used


     G-vector sticks info
     --------------------
     sticks:   dense  smooth     PW     G-vecs:    dense   smooth      PW
     Sum        4643     917    305               152303    13575    2527

     Using Slab Decomposition



     bravais-lattice index     =            0
     lattice parameter (alat)  =      10.5934  a.u.
     unit-cell volume          =     285.2215 (a.u.)^3
     number of atoms/cell      =            4
     number of atomic types    =            3
     number of electrons       =        35.00
     number of Kohn-Sham states=           22
     kinetic-energy cutoff     =      50.0000  Ry
     charge density cutoff     =    1000.0000  Ry
     scf convergence threshold =      1.0E-11
     mixing beta               =       0.7000
     number of iterations used =            8  plain     mixing
     energy convergence thresh.=      1.0E-04
     force convergence thresh. =      1.0E-03
     press convergence thresh. =      5.0E-01
     Exchange-correlation= SLA  PW   PBX  PBC
                           (   1   4   3   4   0   0   0)
     nstep                     =           50


     celldm(1)=  10.593382  celldm(2)=   0.000000  celldm(3)=   0.000000
     celldm(4)=   0.000000  celldm(5)=   0.000000  celldm(6)=   0.000000

     crystal axes: (cart. coord. in units of alat)
               a(1) = (   0.269988   0.155878   0.950162 )  
               a(2) = (  -0.269988   0.155878   0.950162 )  
               a(3) = (   0.000000  -0.311756   0.950162 )  

     reciprocal axes: (cart. coord. in units 2 pi/alat)
               b(1) = (  1.851932  1.069213  0.350817 )  
               b(2) = ( -1.851932  1.069213  0.350817 )  
               b(3) = ( -0.000000 -2.138427  0.350817 )  


     PseudoPot. # 1 for Cr read from file:
     ./pseudo/cr_pbe_v1.5.uspp.F.UPF
     MD5 check sum: 0d52af634a40206e4dee301ad30da4bf
     Pseudo is Ultrasoft + core correction, Zval = 14.0
     Generated by new atomic code, or converted to UPF format
     Using radial grid of  857 points,  6 beta functions with: 
                l(1) =   0
                l(2) =   0
                l(3) =   1
                l(4) =   1
                l(5) =   2
                l(6) =   2
     Q(r) pseudized with  8 coefficients,  rinner =    0.950   0.950   0.950
                                                       0.950   0.950

     PseudoPot. # 2 for Na read from file:
     ./pseudo/Na_ONCV_PBE-1.0.upf
     MD5 check sum: 8619a8fc970a30df18a75067eea56141
     Pseudo is Norm-conserving, Zval =  9.0
     Generated using ONCVPSP code by D. R. Hamann
     Using radial grid of  602 points,  4 beta functions with: 
                l(1) =   0
                l(2) =   0
                l(3) =   1
                l(4) =   1

     PseudoPot. # 3 for O  read from file:
     ./pseudo/O.pbe-n-kjpaw_psl.0.1.UPF
     MD5 check sum: 3f94a2996a3169367d6eb21d9b593f20
     Pseudo is Projector augmented-wave + core cor, Zval =  6.0
     Generated using "atomic" code by A. Dal Corso  v.5.0.99 svn rev. 10869
     Shape of augmentation charge: BESSEL
     Using radial grid of 1095 points,  4 beta functions with: 
                l(1) =   0
                l(2) =   0
                l(3) =   1
                l(4) =   1
     Q(r) pseudized with 0 coefficients 


     atomic species   valence    mass     pseudopotential
        Cr            14.00    51.99600     Cr( 1.00)
        Na             9.00    22.98977     Na( 1.00)
        O              6.00    15.99940     O ( 1.00)

     12 Sym. Ops., with inversion, found


                                    s                        frac. trans.

      isym =  1     identity                                     

 cryst.   s( 1) = (     1          0          0      )
                  (     0          1          0      )
                  (     0          0          1      )

 cart.    s( 1) = (  1.0000000  0.0000000  0.0000000 )
                  (  0.0000000  1.0000000 -0.0000000 )
                  ( -0.0000000  0.0000000  1.0000000 )


      isym =  2     180 deg rotation - cart. axis [1,0,0]        

 cryst.   s( 2) = (     0         -1          0      )
                  (    -1          0          0      )
                  (     0          0         -1      )

 cart.    s( 2) = (  1.0000000 -0.0000000 -0.0000000 )
                  ( -0.0000000 -1.0000000  0.0000000 )
                  ( -0.0000000 -0.0000000 -1.0000000 )


      isym =  3     120 deg rotation - cryst. axis [0,0,1]       

 cryst.   s( 3) = (     0          1          0      )
                  (     0          0          1      )
                  (     1          0          0      )

 cart.    s( 3) = ( -0.5000000 -0.8660254  0.0000000 )
                  (  0.8660254 -0.5000000 -0.0000000 )
                  ( -0.0000000 -0.0000000  1.0000000 )


      isym =  4     120 deg rotation - cryst. axis [0,0,-1]      

 cryst.   s( 4) = (     0          0          1      )
                  (     1          0          0      )
                  (     0          1          0      )

 cart.    s( 4) = ( -0.5000000  0.8660254  0.0000000 )
                  ( -0.8660254 -0.5000000 -0.0000000 )
                  (  0.0000000  0.0000000  1.0000000 )


      isym =  5     180 deg rotation - cryst. axis [0,1,0]       

 cryst.   s( 5) = (    -1          0          0      )
                  (     0          0         -1      )
                  (     0         -1          0      )

 cart.    s( 5) = ( -0.5000000 -0.8660254 -0.0000000 )
                  ( -0.8660254  0.5000000  0.0000000 )
                  (  0.0000000 -0.0000000 -1.0000000 )


      isym =  6     180 deg rotation - cryst. axis [1,1,0]       

 cryst.   s( 6) = (     0          0         -1      )
                  (     0         -1          0      )
                  (    -1          0          0      )

 cart.    s( 6) = ( -0.5000000  0.8660254 -0.0000000 )
                  (  0.8660254  0.5000000  0.0000000 )
                  (  0.0000000  0.0000000 -1.0000000 )


      isym =  7     inversion                                    

 cryst.   s( 7) = (    -1          0          0      )
                  (     0         -1          0      )
                  (     0          0         -1      )

 cart.    s( 7) = ( -1.0000000 -0.0000000 -0.0000000 )
                  ( -0.0000000 -1.0000000  0.0000000 )
                  (  0.0000000 -0.0000000 -1.0000000 )


      isym =  8     inv. 180 deg rotation - cart. axis [1,0,0]   

 cryst.   s( 8) = (     0          1          0      )
                  (     1          0          0      )
                  (     0          0          1      )

 cart.    s( 8) = ( -1.0000000  0.0000000  0.0000000 )
                  (  0.0000000  1.0000000 -0.0000000 )
                  (  0.0000000  0.0000000  1.0000000 )


      isym =  9     inv. 120 deg rotation - cryst. axis [0,0,1]  

 cryst.   s( 9) = (     0         -1          0      )
                  (     0          0         -1      )
                  (    -1          0          0      )

 cart.    s( 9) = (  0.5000000  0.8660254 -0.0000000 )
                  ( -0.8660254  0.5000000  0.0000000 )
                  (  0.0000000  0.0000000 -1.0000000 )


      isym = 10     inv. 120 deg rotation - cryst. axis [0,0,-1] 

 cryst.   s(10) = (     0          0         -1      )
                  (    -1          0          0      )
                  (     0         -1          0      )

 cart.    s(10) = (  0.5000000 -0.8660254 -0.0000000 )
                  (  0.8660254  0.5000000  0.0000000 )
                  ( -0.0000000 -0.0000000 -1.0000000 )


      isym = 11     inv. 180 deg rotation - cryst. axis [0,1,0]  

 cryst.   s(11) = (     1          0          0      )
                  (     0          0          1      )
                  (     0          1          0      )

 cart.    s(11) = (  0.5000000  0.8660254  0.0000000 )
                  (  0.8660254 -0.5000000 -0.0000000 )
                  ( -0.0000000  0.0000000  1.0000000 )


      isym = 12     inv. 180 deg rotation - cryst. axis [1,1,0]  

 cryst.   s(12) = (     0          0          1      )
                  (     0          1          0      )
                  (     1          0          0      )

 cart.    s(12) = (  0.5000000 -0.8660254  0.0000000 )
                  ( -0.8660254 -0.5000000 -0.0000000 )
                  ( -0.0000000 -0.0000000  1.0000000 )


   Cartesian axes

     site n.     atom                  positions (alat units)
         1           Cr  tau(   1) = (   0.0000000   0.0000000   1.4252435  )
         2           Na  tau(   2) = (   0.0000000   0.0000000   2.8504869  )
         3           O   tau(   3) = (   0.0000000   0.0000000   0.6594884  )
         4           O   tau(   4) = (   0.0000000   0.0000000   2.1909986  )

   Crystallographic axes

     site n.     atom                  positions (cryst. coord.)
         1           Cr  tau(   1) = (  0.5000000  0.5000000  0.5000000  )
         2           Na  tau(   2) = (  1.0000000  1.0000000  1.0000000  )
         3           O   tau(   3) = (  0.2313599  0.2313599  0.2313599  )
         4           O   tau(   4) = (  0.7686401  0.7686401  0.7686401  )

     number of k points=    13  Gaussian smearing, width (Ry)=  0.1000
                       cart. coord. in units 2pi/alat
        k(    1) = (   0.0000000   0.0000000   0.0000000), wk =   0.0312500
        k(    2) = (  -0.0000000  -0.5346067   0.0877043), wk =   0.1875000
        k(    3) = (   0.0000000   1.0692135  -0.1754086), wk =   0.0937500
        k(    4) = (  -0.4629830  -0.2673034   0.1754086), wk =   0.1875000
        k(    5) = (  -0.4629830   1.3365168  -0.0877043), wk =   0.3750000
        k(    6) = (  -0.4629830   0.8019101   0.0000000), wk =   0.1875000
        k(    7) = (   0.9259660   0.5346067  -0.3508173), wk =   0.0937500
        k(    8) = (  -0.0000000   0.0000000   0.2631129), wk =   0.0625000
        k(    9) = (   0.0000000   1.6038202   0.0000000), wk =   0.1875000
        k(   10) = (   0.0000000   1.0692135   0.0877043), wk =   0.1875000
        k(   11) = (   1.3889490   0.8019101  -0.2631129), wk =   0.1875000
        k(   12) = (   1.3889490   0.2673034  -0.1754086), wk =   0.1875000
        k(   13) = (   0.0000000   0.0000000  -0.5262259), wk =   0.0312500

                       cryst. coord.
        k(    1) = (   0.0000000   0.0000000   0.0000000), wk =   0.0312500
        k(    2) = (  -0.0000000  -0.0000000   0.2500000), wk =   0.1875000
        k(    3) = (   0.0000000   0.0000000  -0.5000000), wk =   0.0937500
        k(    4) = (  -0.0000000   0.2500000   0.2500000), wk =   0.1875000
        k(    5) = (   0.0000000   0.2500000  -0.5000000), wk =   0.3750000
        k(    6) = (  -0.0000000   0.2500000  -0.2500000), wk =   0.1875000
        k(    7) = (   0.0000000  -0.5000000  -0.5000000), wk =   0.0937500
        k(    8) = (   0.2500000   0.2500000   0.2500000), wk =   0.0625000
        k(    9) = (   0.2500000   0.2500000  -0.5000000), wk =   0.1875000
        k(   10) = (   0.2500000   0.2500000  -0.2500000), wk =   0.1875000
        k(   11) = (   0.2500000  -0.5000000  -0.5000000), wk =   0.1875000
        k(   12) = (   0.2500000  -0.5000000  -0.2500000), wk =   0.1875000
        k(   13) = (  -0.5000000  -0.5000000  -0.5000000), wk =   0.0312500

     Dense  grid:   152303 G-vectors     FFT dimensions: ( 108, 108, 108)

     Smooth grid:    13575 G-vectors     FFT dimensions: (  48,  48,  48)

SIRIUS version : 7.2.8
git hash       : 589ccf589dda66cbcce7b02683cba0c7a6e3f3ae
git branch     : heads/experimental/switch-fp32-to-fp64
build time     : 2021-10-08 15:54:50
start time     : Mon, 11 Oct 2021 12:25:24

number of MPI ranks           : 1
MPI grid                      : 1 1
maximum number of OMP threads : 16
number of MPI ranks per node  : 1
page size (Kb)                : 4
number of pages               : 16466695
available memory (GB)         : 62

FFT context for density and potential
=====================================
  comm size                             : 1
  plane wave cutoff                     : 31.622777
  grid size                             : 108 108 108   total : 1259712
  grid limits                           : -53 54   -53 54   -53 54
  number of G-vectors within the cutoff : 76152
  local number of G-vectors             : 76152
  number of G-shells                    : 12121

FFT context for coarse grid
=====================================
  comm size                             : 1
  plane wave cutoff                     : 14.142136
  grid size                             : 50 50 50   total : 125000
  grid limits                           : -24 25   -24 25   -24 25
  number of G-vectors within the cutoff : 6788
  local number of G-vectors             : 6788
  number of G-shells                    : 1210

number of local G-vector blocks: 1

Unit cell
--------------------------------------------------------------------------------
lattice vectors
  a1 :       2.8600891671       1.6512732506      10.0654319112 
  a2 :      -2.8600891671       1.6512732506      10.0654319112 
  a3 :       0.0000000000      -3.3025465012      10.0654319112 
reciprocal lattice vectors
  b1 :       1.0984247238       0.6341758100       0.2080780160 
  b2 :      -1.0984247238       0.6341758100       0.2080780160 
  b3 :      -0.0000000000      -1.2683516199       0.2080780160 

unit cell volume :       285.22145072 [a.u.^3]
1/sqrt(omega)    :         0.05921189
MT volume        : 0.000000 ( 0.00%)
IT volume        : 285.221451 (100.00%)

number of atom types : 3
type id : 0   symbol :      mt_radius : 206.524747, num_atoms: 1
type id : 1   symbol :      mt_radius :   6.010000, num_atoms: 1
type id : 2   symbol :      mt_radius :  99.043432, num_atoms: 2
total number of atoms : 4
number of symmetry classes : 3
number of PAW atoms : 2

atom id              position                    vector_field        type id    class id
----------------------------------------------------------------------------------------
     0      0.500000 0.500000 0.500000   0.000000 0.000000 0.000000        0           0
     1      1.000000 1.000000 1.000000   0.000000 0.000000 0.000000        1           1
     2      0.231360 0.231360 0.231360   0.000000 0.000000 0.000000        2           2
     3      0.768640 0.768640 0.768640   0.000000 0.000000 0.000000        2           2

class id : 0   atom id : 0 
class id : 1   atom id : 1 
class id : 2   atom id : 2 3 

atom id              position (Cartesian, a.u.)
----------------------------------------------------------------------------------------
     0          0.000000000000     0.000000000000    15.098147866697
     1          0.000000000000     0.000000000000    30.196295733395
     2          0.000000000000    -0.000000000000     6.986211790170
     3         -0.000000000000    -0.000000000000    23.210083943413

class id : 0   atom id : 0 
class id : 1   atom id : 1 
class id : 2   atom id : 2 3 

minimum bond length:       3.837050868507

number of pseudo wave-functions: 18

space group number   : 166
international symbol : R-3m
Hall symbol          : -R 3 2"
space group transformation matrix : 
    0.666667    -0.333333    -0.333333 
    0.333333     0.333333    -0.666667 
    0.333333     0.333333     0.333333 
space group origin shift : 
   -0.000000    -0.000000     0.000000
number of space group operations  : 12
number of magnetic group operations : 12
metric tensor error:     0.000000000625
rotation matrix error:     0.000000000066
symmetry operations  : 
isym : 0
R :   1   0   0 
      0   1   0 
      0   0   1 
Rc:   1.0000   0.0000  -0.0000 
      0.0000   1.0000   0.0000 
      0.0000   0.0000   1.0000 
t :   0.0000   0.0000   0.0000 
S :   1.0000   0.0000  -0.0000 
      0.0000   1.0000   0.0000 
      0.0000   0.0000   1.0000 
proper: 1

isym : 1
R :  -1   0   0 
      0  -1   0 
      0   0  -1 
Rc:  -1.0000  -0.0000   0.0000 
     -0.0000  -1.0000  -0.0000 
     -0.0000  -0.0000  -1.0000 
t :  -0.0000  -0.0000  -0.0000 
S :   1.0000   0.0000  -0.0000 
      0.0000   1.0000   0.0000 
      0.0000   0.0000   1.0000 
proper: -1

isym : 2
R :   0   0   1 
      1   0   0 
      0   1   0 
Rc:  -0.5000  -0.8660   0.0000 
      0.8660  -0.5000   0.0000 
      0.0000   0.0000   1.0000 
t :   0.0000  -0.0000   0.0000 
S :   1.0000   0.0000  -0.0000 
      0.0000   1.0000   0.0000 
      0.0000   0.0000   1.0000 
proper: 1

isym : 3
R :   0   0  -1 
     -1   0   0 
      0  -1   0 
Rc:   0.5000   0.8660  -0.0000 
     -0.8660   0.5000  -0.0000 
     -0.0000  -0.0000  -1.0000 
t :  -0.0000  -0.0000  -0.0000 
S :   1.0000   0.0000  -0.0000 
      0.0000   1.0000   0.0000 
      0.0000   0.0000   1.0000 
proper: -1

isym : 4
R :   0   1   0 
      0   0   1 
      1   0   0 
Rc:  -0.5000   0.8660  -0.0000 
     -0.8660  -0.5000  -0.0000 
      0.0000   0.0000   1.0000 
t :   0.0000  -0.0000  -0.0000 
S :   1.0000   0.0000  -0.0000 
      0.0000   1.0000   0.0000 
      0.0000   0.0000   1.0000 
proper: 1

isym : 5
R :   0  -1   0 
      0   0  -1 
     -1   0   0 
Rc:   0.5000  -0.8660   0.0000 
      0.8660   0.5000   0.0000 
     -0.0000  -0.0000  -1.0000 
t :  -0.0000  -0.0000  -0.0000 
S :   1.0000   0.0000  -0.0000 
      0.0000   1.0000   0.0000 
      0.0000   0.0000   1.0000 
proper: -1

isym : 6
R :   0   0  -1 
      0  -1   0 
     -1   0   0 
Rc:  -0.5000   0.8660  -0.0000 
      0.8660   0.5000   0.0000 
     -0.0000  -0.0000  -1.0000 
t :  -0.0000  -0.0000  -0.0000 
S :   1.0000   0.0000  -0.0000 
      0.0000   1.0000   0.0000 
      0.0000   0.0000   1.0000 
proper: 1

isym : 7
R :   0   0   1 
      0   1   0 
      1   0   0 
Rc:   0.5000  -0.8660   0.0000 
     -0.8660  -0.5000  -0.0000 
      0.0000   0.0000   1.0000 
t :   0.0000   0.0000  -0.0000 
S :   1.0000   0.0000  -0.0000 
      0.0000   1.0000   0.0000 
      0.0000   0.0000   1.0000 
proper: -1

isym : 8
R :   0  -1   0 
     -1   0   0 
      0   0  -1 
Rc:   1.0000   0.0000  -0.0000 
     -0.0000  -1.0000  -0.0000 
     -0.0000  -0.0000  -1.0000 
t :  -0.0000  -0.0000  -0.0000 
S :   1.0000   0.0000  -0.0000 
      0.0000   1.0000   0.0000 
      0.0000   0.0000   1.0000 
proper: 1

isym : 9
R :   0   1   0 
      1   0   0 
      0   0   1 
Rc:  -1.0000  -0.0000   0.0000 
      0.0000   1.0000   0.0000 
      0.0000   0.0000   1.0000 
t :   0.0000  -0.0000   0.0000 
S :   1.0000   0.0000  -0.0000 
      0.0000   1.0000   0.0000 
      0.0000   0.0000   1.0000 
proper: -1

isym : 10
R :  -1   0   0 
      0   0  -1 
      0  -1   0 
Rc:  -0.5000  -0.8660   0.0000 
     -0.8660   0.5000  -0.0000 
     -0.0000  -0.0000  -1.0000 
t :  -0.0000  -0.0000  -0.0000 
S :   1.0000   0.0000  -0.0000 
      0.0000   1.0000   0.0000 
      0.0000   0.0000   1.0000 
proper: 1

isym : 11
R :   1   0   0 
      0   0   1 
      0   1   0 
Rc:   0.5000   0.8660  -0.0000 
      0.8660  -0.5000   0.0000 
      0.0000   0.0000   1.0000 
t :   0.0000  -0.0000   0.0000 
S :   1.0000   0.0000  -0.0000 
      0.0000   1.0000   0.0000 
      0.0000   0.0000   1.0000 
proper: -1


label          : Cr
--------------------------------------------------------------------------------
symbol         : 
name           : 
zn             : 14
mass           : 51.996000
mt_radius      : 206.524747
num_mt_points  : 857
grid_origin    : 0.000000
grid_name      : external

number of core electrons    : 0.000000
number of valence electrons : 14.000000

total number of radial functions : 6
lmax of radial functions         : 2
max. number of radial functions  : 2
total number of basis functions  : 18
number of aw basis functions     : 0
number of lo basis functions     : 18
lmax of beta-projectors          : 2
number of ps wavefunctions       : 4
charge augmentation              : true
vloc is set                      : true
ps_rho_core is set               : true
ps_rho_total is set              : true
Hubbard correction               : false
spin-orbit coupling              : false

label          : Na
--------------------------------------------------------------------------------
symbol         : 
name           : 
zn             : 9
mass           : 22.989770
mt_radius      : 6.010000
num_mt_points  : 602
grid_origin    : 0.000000
grid_name      : external

number of core electrons    : 0.000000
number of valence electrons : 9.000000

total number of radial functions : 4
lmax of radial functions         : 1
max. number of radial functions  : 2
total number of basis functions  : 8
number of aw basis functions     : 0
number of lo basis functions     : 8
lmax of beta-projectors          : 1
number of ps wavefunctions       : 0
charge augmentation              : false
vloc is set                      : true
ps_rho_core is set               : true
ps_rho_total is set              : true
Hubbard correction               : false
spin-orbit coupling              : false

label          : O
--------------------------------------------------------------------------------
symbol         : 
name           : 
zn             : 6
mass           : 15.999400
mt_radius      : 99.043432
num_mt_points  : 1095
grid_origin    : 0.000114
grid_name      : external

number of core electrons    : 0.000000
number of valence electrons : 6.000000

total number of radial functions : 4
lmax of radial functions         : 1
max. number of radial functions  : 2
total number of basis functions  : 8
number of aw basis functions     : 0
number of lo basis functions     : 8
lmax of beta-projectors          : 1
number of ps wavefunctions       : 2
charge augmentation              : true
vloc is set                      : true
ps_rho_core is set               : true
ps_rho_total is set              : true
Hubbard correction               : false
spin-orbit coupling              : false

Basic information
--------------------------------------------------------------------------------
total nuclear charge               : 35
number of core electrons           : 0.000000
number of valence electrons        : 35.000000
total number of electrons          : 35.000000
extra charge                       : 0.000000
total number of aw basis functions : 0
total number of lo basis functions : 42
number of first-variational states : -1
number of bands                    : 22
number of spins                    : 1
number of magnetic dimensions      : 0
number of spinor components        : 1
number of spinors per band index   : 1
lmax_apw                           : -1
lmax_rho                           : 4
lmax_pot                           : 4
lmax_rf                            : 2
smearing type                      : gaussian
smearing width                     : 0.050000
cyclic block size                  : 16
|G+k| cutoff                       : 7.071068
symmetry                           : true
so_correction                      : false
valence relativity                 : zora
core relativity                    : Dirac
standard eigen-value solver        : LAPACK
generalized eigen-value solver     : LAPACK
processing unit                    : CPU

iterative solver                   : davidson
number of steps                    : 20
subspace size                      : 2
early restart ratio                : 0.50
precision_wf                       : fp32
precision_hs                       : fp64

spglib version: 1.16.1
HDF5 version: 1.10.7
Libxc version: 5.1.5

XC functionals
==============
1) XC_GGA_X_PBE: Perdew, Burke & Ernzerhof
J. P. Perdew, K. Burke, and M. Ernzerhof, Phys. Rev. Lett. 77, 3865 (1996) (10.1103/PhysRevLett.77.3865)
J. P. Perdew, K. Burke, and M. Ernzerhof, Phys. Rev. Lett. 78, 1396 (1997) (10.1103/PhysRevLett.78.1396)

2) XC_GGA_C_PBE: Perdew, Burke & Ernzerhof
J. P. Perdew, K. Burke, and M. Ernzerhof, Phys. Rev. Lett. 77, 3865 (1996) (10.1103/PhysRevLett.77.3865)
J. P. Perdew, K. Burke, and M. Ernzerhof, Phys. Rev. Lett. 78, 1396 (1997) (10.1103/PhysRevLett.78.1396)


memory consumption
==================
approximate number of G+k vectors        : 1702
approximate number of G vectors          : 76155
approximate number of coarse G vectors   : 6811
approximate size of wave-functions for each k-point: 0 Mb, 0 Mb/rank
approximate memory consumption of Davidson solver: 6 Mb/rank
approximate memory consumption of charge density augmentation: 598 Mb/rank
approximate memory consumption of FFT transforms: 21 Mb/rank

total number of k-points : 13
--------------------------------------------------------------------------------
  ik                vk                    weight  num_gkvec
--------------------------------------------------------------------------------
   0     0.0000   0.0000   0.0000       0.015625       1697
   1    -0.0000  -0.0000   0.2500       0.093750       1707
   2     0.0000   0.0000  -0.5000       0.046875       1692
   3    -0.0000   0.2500   0.2500       0.093750       1716
   4    -0.0000   0.2500  -0.5000       0.187500       1694
   5    -0.0000   0.2500  -0.2500       0.093750       1696
   6     0.0000  -0.5000  -0.5000       0.046875       1702
   7     0.2500   0.2500   0.2500       0.031250       1709
   8     0.2500   0.2500  -0.5000       0.093750       1710
   9     0.2500   0.2500  -0.2500       0.093750       1694
  10     0.2500  -0.5000  -0.5000       0.093750       1720
  11     0.2500  -0.5000  -0.2500       0.093750       1700
  12    -0.5000  -0.5000  -0.5000       0.015625       1696

=== Warning at line 217 of file /home/ubuntu/SIRIUS/src/density/density.cpp ===
wrong initial charge density
  integral of the density : 33.863275573
  target number of electrons : 35

[find] 
[find] density_tol  : 3.16228e-06
[find] energy_tol   : 0.0001
[find] itsol_tol    : 0.01
[find] num_dft_iter : 100
[find] 
[find] +------------------------------+
[find] | SCF iteration   0 out of 100|
[find] +------------------------------+
[find] 
[solve] iterative solver tolerance: 1.0000e-02
[davidson] eigen-value tolerance  :     0.010000000000
[davidson] empty states tolerance :     0.010000000000
[davidson] eigen-value tolerance  :     0.010000000000
[davidson] empty states tolerance :     0.010000000000
[davidson] eigen-value tolerance  :     0.010000000000
[davidson] empty states tolerance :     0.010000000000
[davidson] eigen-value tolerance  :     0.010000000000
[davidson] empty states tolerance :     0.010000000000
[davidson] eigen-value tolerance  :     0.010000000000
[davidson] empty states tolerance :     0.010000000000
[davidson] eigen-value tolerance  :     0.010000000000
[davidson] empty states tolerance :     0.010000000000
[davidson] eigen-value tolerance  :     0.010000000000
[davidson] empty states tolerance :     0.010000000000
[davidson] eigen-value tolerance  :     0.010000000000
[davidson] empty states tolerance :     0.010000000000
[davidson] eigen-value tolerance  :     0.010000000000
[davidson] empty states tolerance :     0.010000000000
[davidson] eigen-value tolerance  :     0.010000000000
[davidson] empty states tolerance :     0.010000000000
[davidson] eigen-value tolerance  :     0.010000000000
[davidson] empty states tolerance :     0.010000000000
[davidson] eigen-value tolerance  :     0.010000000000
[davidson] empty states tolerance :     0.010000000000
[davidson] eigen-value tolerance  :     0.010000000000
[davidson] empty states tolerance :     0.010000000000
[solve] average number of iterations:     6.076923
[solve] Lowest band energies
ik :  0,    -2.207144   -1.160398   -1.160381   -1.158397   -1.273712   -0.418534   -0.376305   -0.268888   -0.267326    0.091357
ik :  1,    -2.206769   -1.164304   -1.161214   -1.157619   -1.273429   -0.401607   -0.376256   -0.273134   -0.270895    0.107068
ik :  2,    -2.206387   -1.168142   -1.162036   -1.156840   -1.272869   -0.385073   -0.375074   -0.277654   -0.273931    0.078205
ik :  3,    -2.206768   -1.164300   -1.161218   -1.157620   -1.273405   -0.402372   -0.375178   -0.272156   -0.271188   -0.268538
ik :  4,    -2.206389   -1.166622   -1.163572   -1.156847   -1.272872   -0.382899   -0.377471   -0.275448   -0.273932   -0.271065
ik :  5,    -2.206388   -1.166626   -1.163572   -1.156845   -1.272788   -0.383388   -0.376896   -0.275728   -0.273873   -0.271102
ik :  6,    -2.206388   -1.168121   -1.162043   -1.156831   -1.272774   -0.381360   -0.379009   -0.277386   -0.272774   -0.269811
ik :  7,    -2.207145   -1.160397   -1.160381   -1.158408   -1.274008   -0.420160   -0.373485   -0.270683   -0.267363    0.098897
ik :  8,    -2.206766   -1.164303   -1.161213   -1.157643   -1.273393   -0.402129   -0.375812   -0.273492   -0.270499    0.102337
ik :  9,    -2.206386   -1.168136   -1.162034   -1.156839   -1.272648   -0.383705   -0.376515   -0.277477   -0.273075    0.074192
ik : 10,    -2.206767   -1.164300   -1.161220   -1.157634   -1.273292   -0.402882   -0.374720   -0.272849   -0.270650   -0.268661
ik : 11,    -2.206389   -1.166616   -1.163579   -1.156849   -1.272646   -0.382207   -0.378102   -0.275430   -0.273483   -0.271081
ik : 12,    -2.207145   -1.160393   -1.160382   -1.158423   -1.273935   -0.421630   -0.370759   -0.272446   -0.267346    0.108692

=== Warning at line 1417 of file /home/ubuntu/SIRIUS/src/density/density.cpp ===
wrong unsymmetrized density
  obtained value : 3.500000e+01
  target value : 3.500000e+01
  difference : 2.392477e-06


[find] 
[find] Charges and magnetic moments
[find] --------------------------------------------------------------------------------
[find] total charge          : 35.000002
[find] 
[find] Energy
[find] --------------------------------------------------------------------------------
[find] valence_eval_sum               :     -13.69958509
[find] <rho|V^{XC}>                   :     -30.69186757
[find] <rho|E^{XC}>                   :     -24.93849629
[find] <mag|B^{XC}>                   :       0.00000000
[find] <rho|V^{H}>                    :      91.65554529
[find] one-electron contribution      :     -74.51650640 (Ha),    -149.03301279 (Ry)
[find] hartree contribution           :      45.82777264
[find] xc contribution                :     -24.93849629
[find] ewald contribution             :    -107.69851775
[find] PAW contribution               :      -9.52086789
[find] smearing (-TS)                 :      -0.08633248
[find] SCF correction                 :      -0.29917771
[find] Total energy                   :    -171.23212587 (Ha),    -342.46425173 (Ry)
[find] 
[find] band gap (eV)                  :       0.00000000
[find] Efermi                         :       0.42376651
[find] 
[find] iteration : 0, RMS : 1.257095916603e+00, energy difference : -1.712321258662e+02
[find] 
[find] +------------------------------+
[find] | SCF iteration   1 out of 100|
[find] +------------------------------+
[find] 
[solve] iterative solver tolerance: 4.5151e-03
[davidson] eigen-value tolerance  :     0.004515114696
[davidson] empty states tolerance :     0.004515114696
[davidson] eigen-value tolerance  :     0.004515114696
[davidson] empty states tolerance :     0.004515114696
[davidson] eigen-value tolerance  :     0.004515114696
[davidson] empty states tolerance :     0.004515114696
[davidson] eigen-value tolerance  :     0.004515114696
[davidson] empty states tolerance :     0.004515114696
[davidson] eigen-value tolerance  :     0.004515114696
[davidson] empty states tolerance :     0.004515114696
[davidson] eigen-value tolerance  :     0.004515114696
[davidson] empty states tolerance :     0.004515114696
[davidson] eigen-value tolerance  :     0.004515114696
[davidson] empty states tolerance :     0.004515114696
[davidson] eigen-value tolerance  :     0.004515114696
[davidson] empty states tolerance :     0.004515114696
[davidson] eigen-value tolerance  :     0.004515114696
[davidson] empty states tolerance :     0.004515114696
[davidson] eigen-value tolerance  :     0.004515114696
[davidson] empty states tolerance :     0.004515114696
[davidson] eigen-value tolerance  :     0.004515114696
[davidson] empty states tolerance :     0.004515114696
[davidson] eigen-value tolerance  :     0.004515114696
[davidson] empty states tolerance :     0.004515114696
[davidson] eigen-value tolerance  :     0.004515114696
[davidson] empty states tolerance :     0.004515114696
[solve] average number of iterations:     5.076923
[solve] Lowest band energies
ik :  0,    -2.209607   -1.865772   -1.160657   -1.149419   -1.149418   -0.796393   -0.773238   -0.205494   -0.150991    0.205343
ik :  1,    -2.209257   -1.865539   -1.159700   -1.151936   -1.149992   -0.798735   -0.796785   -0.772660   -0.182910   -0.150097
ik :  2,    -2.208951   -1.865284   -1.159187   -1.153873   -1.150562   -0.801069   -0.772305   -0.797427   -0.156191   -0.149875
ik :  3,    -2.209249   -1.865541   -1.159631   -1.151937   -1.149992   -0.798682   -0.796915   -0.772634   -0.181474   -0.151921
ik :  4,    -2.208860   -1.865283   -1.160038   -1.153472   -1.151540   -0.800142   -0.798320   -0.772303   -0.156129   -0.150159
ik :  5,    -2.208969   -1.865284   -1.160037   -1.153472   -1.151539   -0.800139   -0.798343   -0.772312   -0.156989   -0.149336
ik :  6,    -2.209095   -1.865285   -1.159193   -1.153798   -1.150560   -0.800974   -0.797416   -0.772175   -0.155521   -0.150166
ik :  7,    -2.209653   -1.865790   -1.160380   -1.149419   -1.149417   -0.796390   -0.773268   -0.796451   -0.201694   -0.156532
ik :  8,    -2.209282   -1.865543   -1.159981   -1.151934   -1.149995   -0.798729   -0.772773   -0.796985   -0.179300   -0.154516
ik :  9,    -2.208962   -1.865280   -1.159344   -1.153996   -1.150562   -0.801052   -0.772192   -0.797232   -0.155889   -0.150060
ik : 10,    -2.209278   -1.865536   -1.159751   -1.151936   -1.149990   -0.798673   -0.796915   -0.772698   -0.177241   -0.156803
ik : 11,    -2.209011   -1.865287   -1.160040   -1.153470   -1.151536   -0.800138   -0.798315   -0.772238   -0.154837   -0.151353
ik : 12,    -2.209625   -1.865784   -1.160266   -1.149418   -1.149417   -0.796384   -0.773284   -0.796435   -0.196747   -0.163138

=== Warning at line 1417 of file /home/ubuntu/SIRIUS/src/density/density.cpp ===
wrong unsymmetrized density
  obtained value : 3.500000e+01
  target value : 3.500000e+01
  difference : 2.231492e-06


[find] 
[find] Charges and magnetic moments
[find] --------------------------------------------------------------------------------
[find] total charge          : 35.000002
[find] 
[find] Energy
[find] --------------------------------------------------------------------------------
[find] valence_eval_sum               :     -15.25609605
[find] <rho|V^{XC}>                   :     -30.52696347
[find] <rho|E^{XC}>                   :     -24.80558327
[find] <mag|B^{XC}>                   :       0.00000000
[find] <rho|V^{H}>                    :      90.88789883
[find] one-electron contribution      :     -75.42865540 (Ha),    -150.85731081 (Ry)
[find] hartree contribution           :      45.44394942
[find] xc contribution                :     -24.80558327
[find] ewald contribution             :    -107.69851775
[find] PAW contribution               :      -9.52245491
[find] smearing (-TS)                 :      -0.08844839
[find] SCF correction                 :       0.16762724
[find] Total energy                   :    -171.93208308 (Ha),    -343.86416616 (Ry)
[find] 
[find] band gap (eV)                  :       0.00000000
[find] Efermi                         :       0.46390104
[find] 
[find] iteration : 1, RMS : 1.529411001604e+00, energy difference : -6.999572140598e-01
[find] 
[find] +------------------------------+
[find] | SCF iteration   2 out of 100|
[find] +------------------------------+
[find] 
[solve] iterative solver tolerance: 4.2894e-03
[davidson] eigen-value tolerance  :     0.004289358961
[davidson] empty states tolerance :     0.004289358961
[davidson] eigen-value tolerance  :     0.004289358961
[davidson] empty states tolerance :     0.004289358961
[davidson] eigen-value tolerance  :     0.004289358961
[davidson] empty states tolerance :     0.004289358961
[davidson] eigen-value tolerance  :     0.004289358961
[davidson] empty states tolerance :     0.004289358961
[davidson] eigen-value tolerance  :     0.004289358961
[davidson] empty states tolerance :     0.004289358961
[davidson] eigen-value tolerance  :     0.004289358961
[davidson] empty states tolerance :     0.004289358961
[davidson] eigen-value tolerance  :     0.004289358961
[davidson] empty states tolerance :     0.004289358961
[davidson] eigen-value tolerance  :     0.004289358961
[davidson] empty states tolerance :     0.004289358961
[davidson] eigen-value tolerance  :     0.004289358961
[davidson] empty states tolerance :     0.004289358961
[davidson] eigen-value tolerance  :     0.004289358961
[davidson] empty states tolerance :     0.004289358961
[davidson] eigen-value tolerance  :     0.004289358961
[davidson] empty states tolerance :     0.004289358961
[davidson] eigen-value tolerance  :     0.004289358961
[davidson] empty states tolerance :     0.004289358961
[davidson] eigen-value tolerance  :     0.004289358961
[davidson] empty states tolerance :     0.004289358961
[solve] average number of iterations:     2.076923
[solve] Lowest band energies
ik :  0,    -2.171015   -1.660745   -1.119866   -1.119865   -1.118075   -0.611593   -0.611564   -0.602676   -0.343926   -0.296782
ik :  1,    -2.170690   -1.660432   -1.123177   -1.120579   -1.117403   -0.614917   -0.612275   -0.601766   -0.325855   -0.299115
ik :  2,    -2.170354   -1.660101   -1.126438   -1.121290   -1.116728   -0.618157   -0.612928   -0.600832   -0.306103   -0.301420
ik :  3,    -2.170692   -1.660437   -1.123178   -1.120579   -1.117404   -0.614909   -0.612280   -0.601774   -0.324855   -0.300156
ik :  4,    -2.170355   -1.660102   -1.125158   -1.122586   -1.116735   -0.616860   -0.614256   -0.600836   -0.306153   -0.301467
ik :  5,    -2.170355   -1.660102   -1.125158   -1.122586   -1.116735   -0.616859   -0.614258   -0.600812   -0.306423   -0.301237
ik :  6,    -2.170356   -1.660107   -1.126443   -1.121291   -1.116731   -0.618123   -0.612970   -0.600829   -0.306904   -0.300434
ik :  7,    -2.171021   -1.660754   -1.119865   -1.119865   -1.118072   -0.611592   -0.611564   -0.602776   -0.341462   -0.299760
ik :  8,    -2.170687   -1.660435   -1.123178   -1.120578   -1.117401   -0.614903   -0.612253   -0.601814   -0.324198   -0.300998
ik :  9,    -2.170354   -1.660101   -1.126440   -1.121290   -1.116729   -0.618146   -0.612929   -0.600830   -0.306526   -0.300937
ik : 10,    -2.170689   -1.660437   -1.123178   -1.120579   -1.117402   -0.614894   -0.612278   -0.601827   -0.322889   -0.302237
ik : 11,    -2.170355   -1.660106   -1.125159   -1.122586   -1.116735   -0.616853   -0.614255   -0.600838   -0.305835   -0.301708
ik : 12,    -2.171006   -1.660746   -1.119866   -1.119865   -1.118069   -0.611594   -0.611561   -0.602871   -0.338658   -0.303209

=== Warning at line 1417 of file /home/ubuntu/SIRIUS/src/density/density.cpp ===
wrong unsymmetrized density
  obtained value : 3.500000e+01
  target value : 3.500000e+01
  difference : 2.275571e-06


[find] 
[find] Charges and magnetic moments
[find] --------------------------------------------------------------------------------
[find] total charge          : 35.000002
[find] 
[find] Energy
[find] --------------------------------------------------------------------------------
[find] valence_eval_sum               :     -15.36523668
[find] <rho|V^{XC}>                   :     -30.53391329
[find] <rho|E^{XC}>                   :     -24.80988283
[find] <mag|B^{XC}>                   :       0.00000000
[find] <rho|V^{H}>                    :      89.95993343
[find] one-electron contribution      :     -74.61114747 (Ha),    -149.22229495 (Ry)
[find] hartree contribution           :      44.97996671
[find] xc contribution                :     -24.80988283
[find] ewald contribution             :    -107.69851775
[find] PAW contribution               :      -9.52002257
[find] smearing (-TS)                 :      -0.08822212
[find] SCF correction                 :      -0.37841464
[find] Total energy                   :    -172.12624065 (Ha),    -344.25248131 (Ry)
[find] 
[find] band gap (eV)                  :       0.00000000
[find] Efermi                         :       0.46466470
[find] 
[find] iteration : 2, RMS : 6.963614868150e-01, energy difference : -1.941575744416e-01
[find] 
[find] +------------------------------+
[find] | SCF iteration   3 out of 100|
[find] +------------------------------+
[find] 
[solve] iterative solver tolerance: 1.3855e-03
[davidson] eigen-value tolerance  :     0.001385483772
[davidson] empty states tolerance :     0.001385483772
[davidson] eigen-value tolerance  :     0.001385483772
[davidson] empty states tolerance :     0.001385483772
[davidson] eigen-value tolerance  :     0.001385483772
[davidson] empty states tolerance :     0.001385483772
[davidson] eigen-value tolerance  :     0.001385483772
[davidson] empty states tolerance :     0.001385483772
[davidson] eigen-value tolerance  :     0.001385483772
[davidson] empty states tolerance :     0.001385483772
[davidson] eigen-value tolerance  :     0.001385483772
[davidson] empty states tolerance :     0.001385483772
[davidson] eigen-value tolerance  :     0.001385483772
[davidson] empty states tolerance :     0.001385483772
[davidson] eigen-value tolerance  :     0.001385483772
[davidson] empty states tolerance :     0.001385483772
[davidson] eigen-value tolerance  :     0.001385483772
[davidson] empty states tolerance :     0.001385483772
[davidson] eigen-value tolerance  :     0.001385483772
[davidson] empty states tolerance :     0.001385483772
[davidson] eigen-value tolerance  :     0.001385483772
[davidson] empty states tolerance :     0.001385483772
[davidson] eigen-value tolerance  :     0.001385483772
[davidson] empty states tolerance :     0.001385483772
[davidson] eigen-value tolerance  :     0.001385483772
[davidson] empty states tolerance :     0.001385483772
[solve] average number of iterations:     1.692308
[solve] Lowest band energies
ik :  0,    -2.263431   -1.594881   -1.209644   -1.209643   -1.205430   -0.552381   -0.552379   -0.547902   -0.340135   -0.288268
ik :  1,    -2.263136   -1.594544   -1.212504   -1.210276   -1.204890   -0.556070   -0.553118   -0.546764   -0.321140   -0.291370
ik :  2,    -2.262837   -1.594191   -1.215328   -1.210906   -1.204349   -0.559634   -0.553862   -0.545627   -0.299457   -0.295329
ik :  3,    -2.263139   -1.594548   -1.212504   -1.210276   -1.204889   -0.556061   -0.553121   -0.546788   -0.320179   -0.292436
ik :  4,    -2.262835   -1.594191   -1.214228   -1.212018   -1.204354   -0.558192   -0.555298   -0.545635   -0.300288   -0.294590
ik :  5,    -2.262834   -1.594192   -1.214228   -1.212018   -1.204353   -0.558191   -0.555303   -0.545611   -0.300477   -0.294443
ik :  6,    -2.262839   -1.594196   -1.215328   -1.210906   -1.204351   -0.559598   -0.553867   -0.545612   -0.300584   -0.294091
ik :  7,    -2.263434   -1.594889   -1.209644   -1.209644   -1.205428   -0.552382   -0.552377   -0.548058   -0.337594   -0.291273
ik :  8,    -2.263134   -1.594546   -1.212504   -1.210276   -1.204890   -0.556051   -0.553124   -0.546858   -0.319407   -0.293152
ik :  9,    -2.262837   -1.594191   -1.215328   -1.210906   -1.204350   -0.559618   -0.553855   -0.545620   -0.300083   -0.294646
ik : 10,    -2.263137   -1.594551   -1.212504   -1.210276   -1.204890   -0.556041   -0.553113   -0.546872   -0.318307   -0.294365
ik : 11,    -2.262837   -1.594195   -1.214229   -1.212018   -1.204354   -0.558183   -0.555300   -0.545641   -0.300089   -0.294744
ik : 12,    -2.263425   -1.594882   -1.209644   -1.209644   -1.205427   -0.552380   -0.552376   -0.548215   -0.334706   -0.294638

=== Warning at line 1417 of file /home/ubuntu/SIRIUS/src/density/density.cpp ===
wrong unsymmetrized density
  obtained value : 3.500000e+01
  target value : 3.500000e+01
  difference : 2.365904e-06


[find] 
[find] Charges and magnetic moments
[find] --------------------------------------------------------------------------------
[find] total charge          : 35.000002
[find] 
[find] Energy
[find] --------------------------------------------------------------------------------
[find] valence_eval_sum               :     -15.77981627
[find] <rho|V^{XC}>                   :     -30.66805122
[find] <rho|E^{XC}>                   :     -24.91542055
[find] <mag|B^{XC}>                   :       0.00000000
[find] <rho|V^{H}>                    :      91.02427201
[find] one-electron contribution      :     -75.96170443 (Ha),    -151.92340886 (Ry)
[find] hartree contribution           :      45.51213601
[find] xc contribution                :     -24.91542055
[find] ewald contribution             :    -107.69851775
[find] PAW contribution               :      -9.51773454
[find] smearing (-TS)                 :      -0.08593686
[find] SCF correction                 :       0.51316185
[find] Total energy                   :    -172.15401627 (Ha),    -344.30803255 (Ry)
[find] 
[find] band gap (eV)                  :       0.00000000
[find] Efermi                         :       0.39836162
[find] 
[find] iteration : 3, RMS : 1.785351390803e-01, energy difference : -2.777561942332e-02
[find] 
[find] +------------------------------+
[find] | SCF iteration   4 out of 100|
[find] +------------------------------+
[find] 
[solve] iterative solver tolerance: 9.1071e-05
[davidson] eigen-value tolerance  :     0.000091070845
[davidson] empty states tolerance :     0.000091070845
[davidson] eigen-value tolerance  :     0.000091070845
[davidson] empty states tolerance :     0.000091070845
[davidson] eigen-value tolerance  :     0.000091070845
[davidson] empty states tolerance :     0.000091070845
[davidson] eigen-value tolerance  :     0.000091070845
[davidson] empty states tolerance :     0.000091070845
[davidson] eigen-value tolerance  :     0.000091070845
[davidson] empty states tolerance :     0.000091070845
[davidson] eigen-value tolerance  :     0.000091070845
[davidson] empty states tolerance :     0.000091070845
[davidson] eigen-value tolerance  :     0.000091070845
[davidson] empty states tolerance :     0.000091070845
[davidson] eigen-value tolerance  :     0.000091070845
[davidson] empty states tolerance :     0.000091070845
[davidson] eigen-value tolerance  :     0.000091070845
[davidson] empty states tolerance :     0.000091070845
[davidson] eigen-value tolerance  :     0.000091070845
[davidson] empty states tolerance :     0.000091070845
[davidson] eigen-value tolerance  :     0.000091070845
[davidson] empty states tolerance :     0.000091070845
[davidson] eigen-value tolerance  :     0.000091070845
[davidson] empty states tolerance :     0.000091070845
[davidson] eigen-value tolerance  :     0.000091070845
[davidson] empty states tolerance :     0.000091070845
[solve] average number of iterations:     3.692308
[solve] Lowest band energies
ik :  0,    -2.244650   -1.558844   -1.190636   -1.190636   -1.190052   -0.523182   -0.523181   -0.521454   -0.334989   -0.282963
ik :  1,    -2.244348   -1.558482   -1.193588   -1.191286   -1.189492   -0.527247   -0.523991   -0.520147   -0.315779   -0.286088
ik :  2,    -2.244045   -1.558103   -1.196502   -1.191934   -1.188930   -0.531148   -0.524794   -0.518816   -0.293988   -0.289984
ik :  3,    -2.244348   -1.558487   -1.193589   -1.191286   -1.189492   -0.527240   -0.523990   -0.520183   -0.314722   -0.287252
ik :  4,    -2.244046   -1.558104   -1.195365   -1.193083   -1.188935   -0.529556   -0.526373   -0.518830   -0.294810   -0.289254
ik :  5,    -2.244045   -1.558105   -1.195364   -1.193084   -1.188935   -0.529566   -0.526368   -0.518821   -0.294972   -0.289136
ik :  6,    -2.244046   -1.558108   -1.196503   -1.191935   -1.188932   -0.531103   -0.524784   -0.518815   -0.295387   -0.288475
ik :  7,    -2.244651   -1.558853   -1.190636   -1.190636   -1.190050   -0.523183   -0.523177   -0.521662   -0.332187   -0.286200
ik :  8,    -2.244348   -1.558484   -1.193589   -1.191286   -1.189490   -0.527222   -0.523982   -0.520264   -0.313941   -0.287951
ik :  9,    -2.244046   -1.558104   -1.196503   -1.191934   -1.188931   -0.531126   -0.524792   -0.518815   -0.294782   -0.289135
ik : 10,    -2.244348   -1.558490   -1.193589   -1.191286   -1.189490   -0.527216   -0.523990   -0.520301   -0.312718   -0.289285
ik : 11,    -2.244046   -1.558108   -1.195365   -1.193083   -1.188935   -0.529543   -0.526373   -0.518841   -0.294640   -0.289378
ik : 12,    -2.244650   -1.558846   -1.190636   -1.190636   -1.190047   -0.523182   -0.523178   -0.521870   -0.328955   -0.289865

=== Warning at line 1417 of file /home/ubuntu/SIRIUS/src/density/density.cpp ===
wrong unsymmetrized density
  obtained value : 3.500000e+01
  target value : 3.500000e+01
  difference : 2.200082e-06


[find] 
[find] Charges and magnetic moments
[find] --------------------------------------------------------------------------------
[find] total charge          : 35.000002
[find] 
[find] Energy
[find] --------------------------------------------------------------------------------
[find] valence_eval_sum               :     -15.27007850
[find] <rho|V^{XC}>                   :     -30.73584701
[find] <rho|E^{XC}>                   :     -24.96785773
[find] <mag|B^{XC}>                   :       0.00000000
[find] <rho|V^{H}>                    :      91.35711280
[find] one-electron contribution      :     -75.72301376 (Ha),    -151.44602752 (Ry)
[find] hartree contribution           :      45.67855640
[find] xc contribution                :     -24.96785773
[find] ewald contribution             :    -107.69851775
[find] PAW contribution               :      -9.51412320
[find] smearing (-TS)                 :      -0.08524586
[find] SCF correction                 :       0.15715907
[find] Total energy                   :    -172.15304282 (Ha),    -344.30608564 (Ry)
[find] 
[find] band gap (eV)                  :       0.00000000
[find] Efermi                         :       0.41197262
[find] 
[find] iteration : 4, RMS : 1.276294242963e-01, energy difference : 9.734525590375e-04
[find] 
[find] +------------------------------+
[find] | SCF iteration   5 out of 100|
[find] +------------------------------+
[find] 
[solve] iterative solver tolerance: 4.6541e-05
[davidson] eigen-value tolerance  :     0.000046540771
[davidson] empty states tolerance :     0.000046540771
[davidson] eigen-value tolerance  :     0.000046540771
[davidson] empty states tolerance :     0.000046540771
[davidson] eigen-value tolerance  :     0.000046540771
[davidson] empty states tolerance :     0.000046540771
[davidson] eigen-value tolerance  :     0.000046540771
[davidson] empty states tolerance :     0.000046540771
[davidson] eigen-value tolerance  :     0.000046540771
[davidson] empty states tolerance :     0.000046540771
[davidson] eigen-value tolerance  :     0.000046540771
[davidson] empty states tolerance :     0.000046540771
[davidson] eigen-value tolerance  :     0.000046540771
[davidson] empty states tolerance :     0.000046540771
[davidson] eigen-value tolerance  :     0.000046540771
[davidson] empty states tolerance :     0.000046540771
[davidson] eigen-value tolerance  :     0.000046540771
[davidson] empty states tolerance :     0.000046540771
[davidson] eigen-value tolerance  :     0.000046540771
[davidson] empty states tolerance :     0.000046540771
[davidson] eigen-value tolerance  :     0.000046540771
[davidson] empty states tolerance :     0.000046540771
[davidson] eigen-value tolerance  :     0.000046540771
[davidson] empty states tolerance :     0.000046540771
[davidson] eigen-value tolerance  :     0.000046540771
[davidson] empty states tolerance :     0.000046540771
[solve] average number of iterations:     2.615385
[solve] Lowest band energies
ik :  0,    -2.257495   -1.520089   -1.203560   -1.203560   -1.201420   -0.490971   -0.488714   -0.488713   -0.334002   -0.281050
ik :  1,    -2.257197   -1.519705   -1.206445   -1.204198   -1.200875   -0.493197   -0.489571   -0.489416   -0.314579   -0.284495
ik :  2,    -2.256900   -1.519304   -1.209293   -1.204834   -1.200329   -0.497441   -0.490427   -0.487826   -0.292495   -0.288833
ik :  3,    -2.257198   -1.519710   -1.206445   -1.204198   -1.200875   -0.493195   -0.489571   -0.489458   -0.313421   -0.285749
ik :  4,    -2.256900   -1.519306   -1.208183   -1.205955   -1.200333   -0.495679   -0.492173   -0.487849   -0.293511   -0.287901
ik :  5,    -2.256900   -1.519307   -1.208183   -1.205955   -1.200333   -0.495696   -0.492174   -0.487831   -0.293619   -0.287843
ik :  6,    -2.256899   -1.519310   -1.209295   -1.204834   -1.200331   -0.497381   -0.490423   -0.487825   -0.294268   -0.286952
ik :  7,    -2.257495   -1.520098   -1.203560   -1.203560   -1.201417   -0.491278   -0.488714   -0.488714   -0.330909   -0.284483
ik :  8,    -2.257198   -1.519707   -1.206445   -1.204198   -1.200874   -0.493157   -0.489588   -0.489571   -0.312670   -0.286378
ik :  9,    -2.256900   -1.519305   -1.209294   -1.204834   -1.200330   -0.497411   -0.490425   -0.487826   -0.293528   -0.287746
ik : 10,    -2.257198   -1.519713   -1.206445   -1.204198   -1.200874   -0.493154   -0.489630   -0.489571   -0.311323   -0.287820
ik : 11,    -2.256900   -1.519309   -1.208184   -1.205955   -1.200333   -0.495663   -0.492172   -0.487867   -0.293402   -0.287963
ik : 12,    -2.257495   -1.520092   -1.203560   -1.203560   -1.201414   -0.491583   -0.488715   -0.488714   -0.327311   -0.288415

=== Warning at line 1417 of file /home/ubuntu/SIRIUS/src/density/density.cpp ===
wrong unsymmetrized density
  obtained value : 3.500000e+01
  target value : 3.500000e+01
  difference : 2.302820e-06


[find] 
[find] Charges and magnetic moments
[find] --------------------------------------------------------------------------------
[find] total charge          : 35.000002
[find] 
[find] Energy
[find] --------------------------------------------------------------------------------
[find] valence_eval_sum               :     -15.11479069
[find] <rho|V^{XC}>                   :     -30.73739336
[find] <rho|E^{XC}>                   :     -24.96911853
[find] <mag|B^{XC}>                   :       0.00000000
[find] <rho|V^{H}>                    :      91.36222117
[find] one-electron contribution      :     -75.57097757 (Ha),    -151.14195514 (Ry)
[find] hartree contribution           :      45.68111058
[find] xc contribution                :     -24.96911853
[find] ewald contribution             :    -107.69851775
[find] PAW contribution               :      -9.51392724
[find] smearing (-TS)                 :      -0.08491816
[find] SCF correction                 :       0.00196031
[find] Total energy                   :    -172.15438835 (Ha),    -344.30877671 (Ry)
[find] 
[find] band gap (eV)                  :       0.00000000
[find] Efermi                         :       0.40275612
[find] 
[find] iteration : 5, RMS : 2.961052061002e-02, energy difference : -1.345532627766e-03
[find] 
[find] +------------------------------+
[find] | SCF iteration   6 out of 100|
[find] +------------------------------+
[find] 
[solve] iterative solver tolerance: 2.5051e-06
[davidson] eigen-value tolerance  :     0.000002505094
[davidson] empty states tolerance :     0.000002505094
[davidson] eigen-value tolerance  :     0.000002505094
[davidson] empty states tolerance :     0.000002505094
[davidson] eigen-value tolerance  :     0.000002505094
[davidson] empty states tolerance :     0.000002505094
[davidson] eigen-value tolerance  :     0.000002505094
[davidson] empty states tolerance :     0.000002505094
[davidson] eigen-value tolerance  :     0.000002505094
[davidson] empty states tolerance :     0.000002505094
[davidson] eigen-value tolerance  :     0.000002505094
[davidson] empty states tolerance :     0.000002505094
[davidson] eigen-value tolerance  :     0.000002505094
[davidson] empty states tolerance :     0.000002505094
[davidson] eigen-value tolerance  :     0.000002505094
[davidson] empty states tolerance :     0.000002505094
[davidson] eigen-value tolerance  :     0.000002505094
[davidson] empty states tolerance :     0.000002505094
[davidson] eigen-value tolerance  :     0.000002505094
[davidson] empty states tolerance :     0.000002505094
[davidson] eigen-value tolerance  :     0.000002505094
[davidson] empty states tolerance :     0.000002505094
[davidson] eigen-value tolerance  :     0.000002505094
[davidson] empty states tolerance :     0.000002505094
[davidson] eigen-value tolerance  :     0.000002505094
[davidson] empty states tolerance :     0.000002505094
[solve] average number of iterations:     6.538462
[solve] Lowest band energies
ik :  0,    -2.256993   -1.516231   -1.202990   -1.202990   -1.201447   -0.487458   -0.484502   -0.484501   -0.336461   -0.283406
ik :  1,    -2.256694   -1.515846   -1.205893   -1.203631   -1.200899   -0.489031   -0.485862   -0.485363   -0.317052   -0.286947
ik :  2,    -2.256395   -1.515445   -1.208760   -1.204271   -1.200350   -0.493306   -0.486221   -0.484232   -0.295005   -0.291390
ik :  3,    -2.256694   -1.515851   -1.205894   -1.203631   -1.200899   -0.489032   -0.485905   -0.485362   -0.315884   -0.288205
ik :  4,    -2.256395   -1.515446   -1.207643   -1.205400   -1.200354   -0.491523   -0.487986   -0.484255   -0.296044   -0.290432
ik :  5,    -2.256395   -1.515447   -1.207642   -1.205400   -1.200354   -0.491541   -0.487988   -0.484236   -0.296138   -0.290387
ik :  6,    -2.256395   -1.515450   -1.208762   -1.204271   -1.200351   -0.493242   -0.486218   -0.484231   -0.296838   -0.289452
ik :  7,    -2.256993   -1.516240   -1.202990   -1.202990   -1.201445   -0.487789   -0.484502   -0.484502   -0.333337   -0.286834
ik :  8,    -2.256694   -1.515848   -1.205894   -1.203631   -1.200898   -0.488986   -0.486046   -0.485363   -0.315151   -0.288807
ik :  9,    -2.256395   -1.515446   -1.208761   -1.204271   -1.200351   -0.493274   -0.486219   -0.484231   -0.296077   -0.290266
ik : 10,    -2.256694   -1.515854   -1.205894   -1.203631   -1.200898   -0.488987   -0.486089   -0.485362   -0.313795   -0.290253
ik : 11,    -2.256395   -1.515450   -1.207643   -1.205400   -1.200354   -0.491505   -0.487985   -0.484275   -0.295949   -0.290479
ik : 12,    -2.256993   -1.516233   -1.202990   -1.202990   -1.201442   -0.488116   -0.484503   -0.484503   -0.329706   -0.290765

=== Warning at line 1417 of file /home/ubuntu/SIRIUS/src/density/density.cpp ===
wrong unsymmetrized density
  obtained value : 3.500000e+01
  target value : 3.500000e+01
  difference : 1.997578e-06


[find] 
[find] Charges and magnetic moments
[find] --------------------------------------------------------------------------------
[find] total charge          : 35.000002
[find] 
[find] Energy
[find] --------------------------------------------------------------------------------
[find] valence_eval_sum               :     -15.11294743
[find] <rho|V^{XC}>                   :     -30.73810246
[find] <rho|E^{XC}>                   :     -24.96961628
[find] <mag|B^{XC}>                   :       0.00000000
[find] <rho|V^{H}>                    :      91.37310822
[find] one-electron contribution      :     -75.57936006 (Ha),    -151.15872013 (Ry)
[find] hartree contribution           :      45.68655411
[find] xc contribution                :     -24.96961628
[find] ewald contribution             :    -107.69851775
[find] PAW contribution               :      -9.51383311
[find] smearing (-TS)                 :      -0.08493413
[find] SCF correction                 :       0.00518847
[find] Total energy                   :    -172.15451876 (Ha),    -344.30903751 (Ry)
[find] 
[find] band gap (eV)                  :       0.00000000
[find] Efermi                         :       0.40257760
[find] 
[find] iteration : 6, RMS : 4.879073878061e-03, energy difference : -1.304019423856e-04
[find] 
[find] +------------------------------+
[find] | SCF iteration   7 out of 100|
[find] +------------------------------+
[find] 
[solve] iterative solver tolerance: 6.8015e-08
[davidson] eigen-value tolerance  :     0.000000068015
[davidson] empty states tolerance :     0.000000068015
[davidson] eigen-value tolerance  :     0.000000068015
[davidson] empty states tolerance :     0.000000068015
[davidson] eigen-value tolerance  :     0.000000068015
[davidson] empty states tolerance :     0.000000068015
[davidson] eigen-value tolerance  :     0.000000068015
[davidson] empty states tolerance :     0.000000068015
[davidson] eigen-value tolerance  :     0.000000068015
[davidson] empty states tolerance :     0.000000068015
[davidson] eigen-value tolerance  :     0.000000068015
[davidson] empty states tolerance :     0.000000068015
[davidson] eigen-value tolerance  :     0.000000068015
[davidson] empty states tolerance :     0.000000068015
[davidson] eigen-value tolerance  :     0.000000068015
[davidson] empty states tolerance :     0.000000068015
[davidson] eigen-value tolerance  :     0.000000068015
[davidson] empty states tolerance :     0.000000068015
[davidson] eigen-value tolerance  :     0.000000068015
[davidson] empty states tolerance :     0.000000068015
[davidson] eigen-value tolerance  :     0.000000068015
[davidson] empty states tolerance :     0.000000068015
[davidson] eigen-value tolerance  :     0.000000068015
[davidson] empty states tolerance :     0.000000068015
[davidson] eigen-value tolerance  :     0.000000068015
[davidson] empty states tolerance :     0.000000068015
[solve] average number of iterations:     4.923077
[solve] Lowest band energies
ik :  0,    -2.256774   -1.515309   -1.202827   -1.202827   -1.201120   -0.486624   -0.483456   -0.483456   -0.336800   -0.283793
ik :  1,    -2.256475   -1.514924   -1.205731   -1.203468   -1.200572   -0.488000   -0.485017   -0.484319   -0.317405   -0.287343
ik :  2,    -2.256176   -1.514522   -1.208598   -1.204108   -1.200022   -0.492286   -0.485178   -0.483375   -0.295385   -0.291791
ik :  3,    -2.256475   -1.514929   -1.205731   -1.203468   -1.200572   -0.488003   -0.485059   -0.484318   -0.316233   -0.288603
ik :  4,    -2.256176   -1.514524   -1.207480   -1.205237   -1.200026   -0.490496   -0.486950   -0.483400   -0.296428   -0.290829
ik :  5,    -2.256175   -1.514525   -1.207480   -1.205237   -1.200026   -0.490514   -0.486951   -0.483380   -0.296519   -0.290788
ik :  6,    -2.256176   -1.514528   -1.208599   -1.204108   -1.200023   -0.492221   -0.485175   -0.483375   -0.297236   -0.289836
ik :  7,    -2.256773   -1.515318   -1.202827   -1.202827   -1.201117   -0.486959   -0.483457   -0.483457   -0.333663   -0.287226
ik :  8,    -2.256475   -1.514926   -1.205731   -1.203468   -1.200570   -0.487954   -0.485203   -0.484319   -0.315503   -0.289201
ik :  9,    -2.256175   -1.514523   -1.208599   -1.204107   -1.200022   -0.492253   -0.485176   -0.483375   -0.296469   -0.290655
ik : 10,    -2.256475   -1.514932   -1.205731   -1.203468   -1.200570   -0.487957   -0.485245   -0.484318   -0.314142   -0.290650
ik : 11,    -2.256175   -1.514528   -1.207481   -1.205237   -1.200026   -0.490479   -0.486949   -0.483419   -0.296336   -0.290872
ik : 12,    -2.256773   -1.515312   -1.202827   -1.202827   -1.201115   -0.487291   -0.483458   -0.483458   -0.330016   -0.291166

=== Warning at line 1417 of file /home/ubuntu/SIRIUS/src/density/density.cpp ===
wrong unsymmetrized density
  obtained value : 3.500000e+01
  target value : 3.500000e+01
  difference : 2.472860e-06


[find] 
[find] Charges and magnetic moments
[find] --------------------------------------------------------------------------------
[find] total charge          : 35.000002
[find] 
[find] Energy
[find] --------------------------------------------------------------------------------
[find] valence_eval_sum               :     -15.10774442
[find] <rho|V^{XC}>                   :     -30.73967936
[find] <rho|E^{XC}>                   :     -24.97086960
[find] <mag|B^{XC}>                   :       0.00000000
[find] <rho|V^{H}>                    :      91.38452847
[find] one-electron contribution      :     -75.58418497 (Ha),    -151.16836995 (Ry)
[find] hartree contribution           :      45.69226424
[find] xc contribution                :     -24.97086960
[find] ewald contribution             :    -107.69851775
[find] PAW contribution               :      -9.51382315
[find] smearing (-TS)                 :      -0.08495796
[find] SCF correction                 :       0.00556592
[find] Total energy                   :    -172.15452327 (Ha),    -344.30904655 (Ry)
[find] 
[find] band gap (eV)                  :       0.00000000
[find] Efermi                         :       0.40271350
[find] 
[find] iteration : 7, RMS : 5.521844005568e-03, energy difference : -4.518046438307e-06
[find] 
[find] +------------------------------+
[find] | SCF iteration   8 out of 100|
[find] +------------------------------+
[find] 
[solve] iterative solver tolerance: 6.4615e-08
[davidson] eigen-value tolerance  :     0.000000064615
[davidson] empty states tolerance :     0.000000064615
[davidson] eigen-value tolerance  :     0.000000064615
[davidson] empty states tolerance :     0.000000064615
[davidson] eigen-value tolerance  :     0.000000064615
[davidson] empty states tolerance :     0.000000064615
[davidson] eigen-value tolerance  :     0.000000064615
[davidson] empty states tolerance :     0.000000064615
[davidson] eigen-value tolerance  :     0.000000064615
[davidson] empty states tolerance :     0.000000064615
[davidson] eigen-value tolerance  :     0.000000064615
[davidson] empty states tolerance :     0.000000064615
[davidson] eigen-value tolerance  :     0.000000064615
[davidson] empty states tolerance :     0.000000064615
[davidson] eigen-value tolerance  :     0.000000064615
[davidson] empty states tolerance :     0.000000064615
[davidson] eigen-value tolerance  :     0.000000064615
[davidson] empty states tolerance :     0.000000064615
[davidson] eigen-value tolerance  :     0.000000064615
[davidson] empty states tolerance :     0.000000064615
[davidson] eigen-value tolerance  :     0.000000064615
[davidson] empty states tolerance :     0.000000064615
[davidson] eigen-value tolerance  :     0.000000064615
[davidson] empty states tolerance :     0.000000064615
[davidson] eigen-value tolerance  :     0.000000064615
[davidson] empty states tolerance :     0.000000064615
[solve] average number of iterations:     1.692308
[solve] Lowest band energies
ik :  0,    -2.256684   -1.515618   -1.202742   -1.202742   -1.201005   -0.486873   -0.483721   -0.483721   -0.336338   -0.283327
ik :  1,    -2.256385   -1.515232   -1.205644   -1.203383   -1.200457   -0.488261   -0.485270   -0.484583   -0.316936   -0.286865
ik :  2,    -2.256086   -1.514831   -1.208510   -1.204022   -1.199907   -0.492542   -0.485443   -0.483633   -0.294904   -0.291302
ik :  3,    -2.256385   -1.515238   -1.205644   -1.203383   -1.200457   -0.488263   -0.485312   -0.484582   -0.315765   -0.288125
ik :  4,    -2.256086   -1.514833   -1.207393   -1.205150   -1.199911   -0.490756   -0.487213   -0.483658   -0.295944   -0.290343
ik :  5,    -2.256086   -1.514834   -1.207392   -1.205151   -1.199911   -0.490773   -0.487214   -0.483638   -0.296036   -0.290300
ik :  6,    -2.256086   -1.514836   -1.208511   -1.204022   -1.199909   -0.492478   -0.485439   -0.483633   -0.296748   -0.289353
ik :  7,    -2.256684   -1.515627   -1.202742   -1.202741   -1.201002   -0.487205   -0.483722   -0.483722   -0.333206   -0.286761
ik :  8,    -2.256386   -1.515234   -1.205645   -1.203382   -1.200455   -0.488215   -0.485455   -0.484583   -0.315033   -0.288726
ik :  9,    -2.256086   -1.514832   -1.208510   -1.204022   -1.199908   -0.492511   -0.485441   -0.483633   -0.295983   -0.290170
ik : 10,    -2.256386   -1.515241   -1.205645   -1.203383   -1.200455   -0.488218   -0.485497   -0.484583   -0.313673   -0.290175
ik : 11,    -2.256086   -1.514836   -1.207393   -1.205150   -1.199911   -0.490738   -0.487211   -0.483677   -0.295850   -0.290387
ik : 12,    -2.256684   -1.515620   -1.202742   -1.202741   -1.200999   -0.487534   -0.483723   -0.483723   -0.329563   -0.290700

=== Warning at line 1417 of file /home/ubuntu/SIRIUS/src/density/density.cpp ===
wrong unsymmetrized density
  obtained value : 3.500000e+01
  target value : 3.500000e+01
  difference : 2.251487e-06


[find] 
[find] Charges and magnetic moments
[find] --------------------------------------------------------------------------------
[find] total charge          : 35.000002
[find] 
[find] Energy
[find] --------------------------------------------------------------------------------
[find] valence_eval_sum               :     -15.10219874
[find] <rho|V^{XC}>                   :     -30.74038657
[find] <rho|E^{XC}>                   :     -24.97141589
[find] <mag|B^{XC}>                   :       0.00000000
[find] <rho|V^{H}>                    :      91.38898350
[find] one-electron contribution      :     -75.58243491 (Ha),    -151.16486983 (Ry)
[find] hartree contribution           :      45.69449175
[find] xc contribution                :     -24.97141589
[find] ewald contribution             :    -107.69851775
[find] PAW contribution               :      -9.51379417
[find] smearing (-TS)                 :      -0.08494009
[find] SCF correction                 :       0.00208560
[find] Total energy                   :    -172.15452547 (Ha),    -344.30905093 (Ry)
[find] 
[find] band gap (eV)                  :       0.00000000
[find] Efermi                         :       0.40285939
[find] 
[find] iteration : 8, RMS : 1.325843166996e-03, energy difference : -2.192541273871e-06
[find] 
[find] +------------------------------+
[find] | SCF iteration   9 out of 100|
[find] +------------------------------+
[find] 
[solve] iterative solver tolerance: 5.0225e-09
[davidson] eigen-value tolerance  :     0.000000005022
[davidson] empty states tolerance :     0.000000005022
[davidson] eigen-value tolerance  :     0.000000005022
[davidson] empty states tolerance :     0.000000005022
[davidson] eigen-value tolerance  :     0.000000005022
[davidson] empty states tolerance :     0.000000005022
[davidson] eigen-value tolerance  :     0.000000005022
[davidson] empty states tolerance :     0.000000005022
[davidson] eigen-value tolerance  :     0.000000005022
[davidson] empty states tolerance :     0.000000005022
[davidson] eigen-value tolerance  :     0.000000005022
[davidson] empty states tolerance :     0.000000005022
[davidson] eigen-value tolerance  :     0.000000005022
[davidson] empty states tolerance :     0.000000005022
[davidson] eigen-value tolerance  :     0.000000005022
[davidson] empty states tolerance :     0.000000005022
[davidson] eigen-value tolerance  :     0.000000005022
[davidson] empty states tolerance :     0.000000005022
[davidson] eigen-value tolerance  :     0.000000005022
[davidson] empty states tolerance :     0.000000005022
[davidson] eigen-value tolerance  :     0.000000005022
[davidson] empty states tolerance :     0.000000005022
[davidson] eigen-value tolerance  :     0.000000005022
[davidson] empty states tolerance :     0.000000005022
[davidson] eigen-value tolerance  :     0.000000005022
[davidson] empty states tolerance :     0.000000005022
[solve] average number of iterations:     3.384615
[solve] Lowest band energies
ik :  0,    -2.256720   -1.515418   -1.202773   -1.202773   -1.201041   -0.486720   -0.483551   -0.483550   -0.336265   -0.283250
ik :  1,    -2.256422   -1.515032   -1.205675   -1.203414   -1.200493   -0.488092   -0.485116   -0.484413   -0.316861   -0.286789
ik :  2,    -2.256123   -1.514631   -1.208540   -1.204053   -1.199943   -0.492376   -0.485273   -0.483478   -0.294826   -0.291226
ik :  3,    -2.256422   -1.515038   -1.205675   -1.203414   -1.200493   -0.488095   -0.485158   -0.484412   -0.315689   -0.288049
ik :  4,    -2.256123   -1.514632   -1.207423   -1.205182   -1.199947   -0.490588   -0.487043   -0.483503   -0.295867   -0.290266
ik :  5,    -2.256123   -1.514634   -1.207423   -1.205182   -1.199947   -0.490606   -0.487045   -0.483483   -0.295959   -0.290223
ik :  6,    -2.256123   -1.514637   -1.208542   -1.204053   -1.199945   -0.492312   -0.485269   -0.483478   -0.296672   -0.289275
ik :  7,    -2.256721   -1.515427   -1.202773   -1.202773   -1.201038   -0.487053   -0.483551   -0.483551   -0.333131   -0.286685
ik :  8,    -2.256422   -1.515034   -1.205676   -1.203414   -1.200491   -0.488047   -0.485301   -0.484413   -0.314957   -0.288649
ik :  9,    -2.256123   -1.514632   -1.208541   -1.204053   -1.199944   -0.492344   -0.485271   -0.483478   -0.295907   -0.290092
ik : 10,    -2.256422   -1.515041   -1.205676   -1.203414   -1.200491   -0.488049   -0.485343   -0.484412   -0.313597   -0.290099
ik : 11,    -2.256123   -1.514636   -1.207424   -1.205182   -1.199947   -0.490570   -0.487042   -0.483522   -0.295774   -0.290311
ik : 12,    -2.256720   -1.515420   -1.202773   -1.202773   -1.201035   -0.487382   -0.483552   -0.483552   -0.329486   -0.290627

=== Warning at line 1417 of file /home/ubuntu/SIRIUS/src/density/density.cpp ===
wrong unsymmetrized density
  obtained value : 3.500000e+01
  target value : 3.500000e+01
  difference : 2.477647e-06


[find] 
[find] Charges and magnetic moments
[find] --------------------------------------------------------------------------------
[find] total charge          : 35.000002
[find] 
[find] Energy
[find] --------------------------------------------------------------------------------
[find] valence_eval_sum               :     -15.10011715
[find] <rho|V^{XC}>                   :     -30.74038263
[find] <rho|E^{XC}>                   :     -24.97141076
[find] <mag|B^{XC}>                   :       0.00000000
[find] <rho|V^{H}>                    :      91.38898929
[find] one-electron contribution      :     -75.58037345 (Ha),    -151.16074689 (Ry)
[find] hartree contribution           :      45.69449464
[find] xc contribution                :     -24.97141076
[find] ewald contribution             :    -107.69851775
[find] PAW contribution               :      -9.51378696
[find] smearing (-TS)                 :      -0.08493584
[find] SCF correction                 :       0.00000488
[find] Total energy                   :    -172.15452523 (Ha),    -344.30905045 (Ry)
[find] 
[find] band gap (eV)                  :       0.00000000
[find] Efermi                         :       0.40284762
[find] 
[find] iteration : 9, RMS : 1.769903967693e-04, energy difference : 2.410688466625e-07
[find] 
[find] +------------------------------+
[find] | SCF iteration  10 out of 100|
[find] +------------------------------+
[find] 
[solve] iterative solver tolerance: 1.0000e-10
[davidson] eigen-value tolerance  :     0.000000000100
[davidson] empty states tolerance :     0.000000000100
[davidson] eigen-value tolerance  :     0.000000000100
[davidson] empty states tolerance :     0.000000000100
[davidson] eigen-value tolerance  :     0.000000000100
[davidson] empty states tolerance :     0.000000000100
[davidson] eigen-value tolerance  :     0.000000000100
[davidson] empty states tolerance :     0.000000000100
[davidson] eigen-value tolerance  :     0.000000000100
[davidson] empty states tolerance :     0.000000000100
[davidson] eigen-value tolerance  :     0.000000000100
[davidson] empty states tolerance :     0.000000000100
[davidson] eigen-value tolerance  :     0.000000000100
[davidson] empty states tolerance :     0.000000000100
[davidson] eigen-value tolerance  :     0.000000000100
[davidson] empty states tolerance :     0.000000000100
[davidson] eigen-value tolerance  :     0.000000000100
[davidson] empty states tolerance :     0.000000000100
[davidson] eigen-value tolerance  :     0.000000000100
[davidson] empty states tolerance :     0.000000000100
[davidson] eigen-value tolerance  :     0.000000000100
[davidson] empty states tolerance :     0.000000000100
[davidson] eigen-value tolerance  :     0.000000000100
[davidson] empty states tolerance :     0.000000000100
[davidson] eigen-value tolerance  :     0.000000000100
[davidson] empty states tolerance :     0.000000000100
[solve] average number of iterations:     6.461538
[solve] Lowest band energies
ik :  0,    -2.256721   -1.515416   -1.202774   -1.202774   -1.201040   -0.486719   -0.483555   -0.483555   -0.336263   -0.283249
ik :  1,    -2.256423   -1.515031   -1.205676   -1.203416   -1.200492   -0.488096   -0.485115   -0.484418   -0.316860   -0.286787
ik :  2,    -2.256124   -1.514629   -1.208541   -1.204054   -1.199942   -0.492380   -0.485277   -0.483477   -0.294825   -0.291224
ik :  3,    -2.256423   -1.515036   -1.205677   -1.203416   -1.200492   -0.488099   -0.485157   -0.484417   -0.315689   -0.288048
ik :  4,    -2.256124   -1.514631   -1.207425   -1.205183   -1.199946   -0.490593   -0.487048   -0.483501   -0.295866   -0.290265
ik :  5,    -2.256124   -1.514632   -1.207424   -1.205183   -1.199946   -0.490610   -0.487049   -0.483482   -0.295958   -0.290222
ik :  6,    -2.256123   -1.514635   -1.208543   -1.204055   -1.199944   -0.492316   -0.485274   -0.483477   -0.296671   -0.289274
ik :  7,    -2.256721   -1.515425   -1.202774   -1.202774   -1.201037   -0.487052   -0.483556   -0.483556   -0.333129   -0.286684
ik :  8,    -2.256423   -1.515033   -1.205677   -1.203415   -1.200490   -0.488051   -0.485300   -0.484418   -0.314956   -0.288648
ik :  9,    -2.256124   -1.514630   -1.208542   -1.204055   -1.199943   -0.492348   -0.485275   -0.483477   -0.295906   -0.290092
ik : 10,    -2.256423   -1.515039   -1.205677   -1.203415   -1.200490   -0.488053   -0.485342   -0.484417   -0.313595   -0.290098
ik : 11,    -2.256124   -1.514634   -1.207425   -1.205183   -1.199946   -0.490575   -0.487047   -0.483521   -0.295773   -0.290309
ik : 12,    -2.256721   -1.515418   -1.202774   -1.202774   -1.201034   -0.487381   -0.483556   -0.483556   -0.329484   -0.290626

=== Warning at line 1417 of file /home/ubuntu/SIRIUS/src/density/density.cpp ===
wrong unsymmetrized density
  obtained value : 3.500000e+01
  target value : 3.500000e+01
  difference : 2.466797e-06


[find] 
[find] Charges and magnetic moments
[find] --------------------------------------------------------------------------------
[find] total charge          : 35.000002
[find] 
[find] Energy
[find] --------------------------------------------------------------------------------
[find] valence_eval_sum               :     -15.10011227
[...]
 sirius::Potential::xc_rg_nonmagnetic|libxc                        256       5.30 s        1.96     100.00      17.49 ms      10.29 ms      33.18 ms
 sirius::Density::get_magnetisation                                128       4.37 s        1.62     100.00      32.16 ms      30.99 ms      64.00 ms
 sirius::Density::compute_atomic_mag_mom                           128       4.37 s        1.62     100.00      32.15 ms      30.98 ms      63.99 ms
 sirius::Stress|us                                                   8       4.32 s        1.60     100.00     558.62 ms     438.74 ms     648.12 ms
 sirius::divergence                                                256       4.25 s        1.58     100.00      16.57 ms      15.14 ms      20.14 ms
 sirius::Potential::generate_D_operator_matrix                     128       4.18 s        1.55     100.00      32.66 ms      28.83 ms      42.81 ms
 sirius::Potential::poisson                                        128       3.70 s        1.37     100.00      28.71 ms      27.16 ms      42.06 ms
 forces                                                              8       3.30 s        1.22     100.00     405.75 ms     389.39 ms     456.09 ms
 sirius::DFT_ground_state::update                                    7       3.11 s        1.15     100.00     445.27 ms     413.06 ms     471.01 ms
 init_vloc                                                           2       3.05 s        1.13     100.00       1.53 s        1.50 s        1.55 s 
 sirius::Simulation_context::update                                  9       2.90 s        1.07     100.00     291.36 ms     266.83 ms     478.22 ms
 sirius::Augmentation_operator_gvec_deriv::generate_pw_coeffs       48       2.72 s        1.01     100.00      40.93 ms       8.23 ms     137.99 ms
 init_us_1                                                           2       2.62 s        0.97     100.00       1.31 s        1.30 s        1.32 s 
 sirius::Density::mix                                              120       2.37 s        0.88     100.00      22.68 ms       6.85 ms      26.89 ms
 Eigensolver_lapack|zheevx                                        6628       2.14 s        0.79     100.00     325.15 us      14.29 us       1.60 ms
 sirius::Band::initialize_subspace                                  16       2.07 s        0.77     100.00     128.33 ms     109.99 ms     163.34 ms
 sirius::Band::initialize_subspace|kp                              208       2.06 s        0.76     100.00       9.59 ms       8.03 ms      42.85 ms
 sirius::symmetrize|fpw|local                                      248       1.98 s        0.73     100.00       8.02 ms       6.14 ms      10.23 ms
 sirius::Density::generate_rho_aug|sum                             240       1.93 s        0.72     100.00       8.09 ms       2.90 ms      14.28 ms
 sddk::Gvec_shells::remap_forward                                  248       1.80 s        0.67     100.00       7.22 ms       6.49 ms       9.35 ms
 sddk::Gvec_shells::remap_backward                                 248       1.75 s        0.65     100.00       7.02 ms       6.38 ms      10.20 ms
 sirius::Density::generate_rho_aug|gemm                            240       1.65 s        0.61     100.00       6.92 ms       1.90 ms      16.28 ms
 potinit                                                             2       1.57 s        0.58     100.00     785.04 ms     703.69 ms     866.40 ms
 sirius::Stress|vloc                                                 8       1.46 s        0.54     100.00     193.65 ms     145.58 ms     210.12 ms
 sirius::Augmentation_operator::generate_pw_coeffs                  18       1.36 s        0.50     100.00      75.74 ms       8.05 ms     157.59 ms
 setup_sirius                                                        2       1.35 s        0.50     100.00     674.85 ms     599.53 ms     750.16 ms
 sirius::Periodic_function::integrate                              136       1.33 s        0.49     100.00       9.72 ms       9.14 ms      11.40 ms
 sirius::Force::calc_forces_us                                       8       1.26 s        0.47     100.00     156.65 ms     153.84 ms     161.09 ms
 sirius::Hamiltonian_k::get_h_o_diag                              1560       1.23 s        0.46     100.00     677.10 us     585.20 us      36.02 ms
 sirius::normalized_preconditioned_residuals                      5068       1.17 s        0.43     100.00     189.99 us      55.27 us      13.52 ms
 newd                                                                2       1.08 s        0.40     100.00     539.14 ms     511.21 ms     567.08 ms
 sirius::Simulation_context::make_periodic_function                 58       1.01 s        0.37     100.00      17.66 ms      13.51 ms      19.68 ms
 sirius::Force::calc_forces_ewald                                    8     924.96 ms       0.34     100.00     117.23 ms     106.78 ms     123.43 ms
 sirius::gradient                                                  136     919.99 ms       0.34     100.00       5.67 ms       5.43 ms      20.06 ms
 sirius::Simulation_context::initialize                              2     903.81 ms       0.34     100.00     451.91 ms     417.26 ms     486.55 ms
 qe|update                                                           6     837.44 ms       0.31     100.00     137.51 ms     131.91 ms     153.28 ms
 sirius::K_point_set::find_band_occupancies                        120     835.73 ms       0.31     100.00       6.12 ms       4.90 ms      42.52 ms
 sirius::Density::update                                            17     827.37 ms       0.31     100.00      49.49 ms      39.76 ms      53.05 ms
 sirius::Density::generate_pseudo_core_charge_density               17     810.81 ms       0.30     100.00      48.47 ms      38.18 ms      52.41 ms
 sirius::Stress|us|gemm                                            144     758.55 ms       0.28     100.00       5.21 ms       3.56 ms       8.39 ms
 sirius::Density::initial_density                                    8     701.02 ms       0.26     100.00      90.41 ms      80.79 ms      92.10 ms
 sirius::Stress|kin                                                  8     686.26 ms       0.25     100.00      85.78 ms      82.76 ms      88.46 ms
 sirius::Beta_projectors_base::inner                              9852     684.62 ms       0.25     100.00      60.66 us      20.90 us       2.93 ms
 sirius::Potential::update                                           9     684.07 ms       0.25     100.00      77.34 ms      62.45 ms      81.13 ms
 sirius::Potential::generate_local_potential                         9     670.16 ms       0.25     100.00      75.93 ms      60.94 ms      79.54 ms
 sirius::Non_local_functor::add_k_point                            208     650.69 ms       0.24     100.00       3.14 ms       1.17 ms       7.77 ms
 sirius::Stress|nonloc                                               8     588.54 ms       0.22     100.00      67.53 ms      64.04 ms      98.45 ms
 sirius::Non_local_operator::apply                               13672     588.40 ms       0.22     100.00      43.06 us      13.57 us       8.21 ms
 sirius::Density                                                    10     534.92 ms       0.20     100.00      51.78 ms      50.27 ms      61.51 ms
 sirius::dot                                                       128     497.92 ms       0.18     100.00       3.39 ms       3.16 ms       8.11 ms
 v_of_rho                                                            2     497.55 ms       0.18     100.00     248.77 ms     194.74 ms     302.81 ms
 v_xc                                                                2     474.32 ms       0.18     100.00     237.16 ms     183.90 ms     290.42 ms
 sirius::Augmentation_operator_gvec_deriv                            8     423.99 ms       0.16     100.00      53.02 ms      51.24 ms      55.10 ms
 sirius::Force::calc_forces_vloc                                     8     401.29 ms       0.15     100.00      45.34 ms      39.69 ms      67.45 ms
 sirius::Density::mixer_output                                     120     364.47 ms       0.14     100.00       3.06 ms       2.43 ms       4.17 ms
 sddk::Gvec_shells                                                   9     339.46 ms       0.13     100.00      37.69 ms      35.97 ms      39.78 ms
 sddk::Gvec::find_gvec_shells                                       18     334.73 ms       0.12     100.00      17.19 ms       2.55 ms      36.56 ms
 sddk::orthogonalize|potrf                                       11696     333.48 ms       0.12     100.00      12.79 us       1.20 us     603.44 us
 sirius::Stress|us|phase_fac                                        16     287.56 ms       0.11     100.00      18.03 ms      16.01 ms      20.48 ms
 sirius::Force::calc_forces_core                                     8     274.39 ms       0.10     100.00      38.12 ms      25.12 ms      39.47 ms
 sirius::Potential                                                   2     237.69 ms       0.09     100.00     118.85 ms      88.67 ms     149.02 ms
 sirius::Force::calc_forces_scf_corr                                 8     236.15 ms       0.09     100.00      31.32 ms      22.82 ms      35.08 ms
 sirius::Force::calc_forces_nonloc                                   8     206.49 ms       0.08     100.00      23.46 ms      21.92 ms      33.24 ms
 sirius::Periodic_function::add                                    256     205.07 ms       0.08     100.00     787.95 us     683.98 us       1.97 ms
 sirius::Density::add_k_point_contribution_dm                     1560     187.65 ms       0.07     100.00      99.23 us      82.27 us       2.99 ms
 sirius::Hamiltonian0                                              136     175.06 ms       0.06     100.00     738.44 us     667.23 us      31.83 ms
 sirius::Radial_integrals|atomic_wfs                                 8     169.59 ms       0.06     100.00      16.67 ms       1.48 us      55.30 ms
 sirius::Beta_projectors_base::generate                           1482     164.15 ms       0.06     100.00      97.00 us      81.41 us       1.38 ms
 sirius::K_point_set::initialize                                     2     162.11 ms       0.06     100.00      81.06 ms      68.42 ms      93.70 ms
 sirius::K_point::initialize                                        52     161.13 ms       0.06     100.00       2.82 ms       2.45 ms       4.76 ms
 sirius_api::sirius_get_wave_functions                             104     150.06 ms       0.06     100.00       1.43 ms       1.25 ms       2.00 ms
 sirius::K_point::update                                           234     142.42 ms       0.05     100.00     531.89 us     410.10 us       2.24 ms
 sirius::Stress|ewald                                                8     127.12 ms       0.05     100.00      15.91 ms      15.22 ms      16.46 ms
 sddk::orthogonalize|trtri                                       11696     126.04 ms       0.05     100.00       6.73 us     782.00 ns     229.31 us
 sddk::Gvec::init                                                   56     122.94 ms       0.05     100.00     387.15 us     344.30 us      48.02 ms
 sirius::Local_operator                                            136     119.07 ms       0.04     100.00     455.76 us     406.07 us      26.52 ms
 sirius::Beta_projectors_strain_deriv::generate_pw_coefs_t         104     115.21 ms       0.04     100.00       1.23 ms     688.82 us       1.35 ms
 sirius::K_point::generate_atomic_wave_functions                   208     109.63 ms       0.04     100.00     406.96 us     362.33 us      24.42 ms
 sirius::K_point::generate_gkvec                                    52     104.55 ms       0.04     100.00       1.86 ms       1.43 ms       3.50 ms
 sirius::Hamiltonian_k                                            1768     104.00 ms       0.04     100.00      18.79 us      11.29 us       2.72 ms
 sirius::Beta_projectors                                           234      94.73 ms       0.04     100.00     318.28 us     223.14 us       1.99 ms
 sirius::Local_operator::prepare_k                                1768      93.69 ms       0.03     100.00      12.90 us       8.00 us       2.71 ms
 sirius::Density::mixer_input                                      120      86.88 ms       0.03     100.00     717.29 us     550.46 us     912.21 us
 sirius::Simulation_context::init_atoms_to_grid_idx                  9      79.55 ms       0.03     100.00       7.06 ms       6.86 ms      14.58 ms
 sirius::Density::symmetrize_density_matrix                        120      56.82 ms       0.02     100.00     461.30 us     409.60 us     784.11 us
 sirius::Beta_projectors::generate_pw_coefs_t                      234      55.87 ms       0.02     100.00     183.42 us     124.29 us     704.67 us
 sirius::Band::initialize_subspace|kp|wf                           208      53.52 ms       0.02     100.00     241.56 us     203.15 us       3.19 ms
 fft                                                                26      52.59 ms       0.02     100.00       2.00 ms       1.73 ms       2.65 ms
 sirius::Stress|har                                                  8      48.27 ms       0.02     100.00       6.04 ms       5.82 ms       6.22 ms
 sirius::Stress|us|prepare                                         144      43.46 ms       0.02     100.00     311.72 us     181.64 us     565.70 us
 sirius::Augmentation_operator_gvec_deriv::prepare                  16      43.28 ms       0.02     100.00       2.51 ms       1.40 ms       4.63 ms
 qe|setlocal                                                         2      42.85 ms       0.02     100.00      21.42 ms      13.24 ms      29.60 ms
 qe|paw_potential                                                    2      39.77 ms       0.01     100.00      19.88 ms      19.81 ms      19.96 ms
 PAW_pot                                                             2      39.72 ms       0.01     100.00      19.86 ms      19.79 ms      19.93 ms
 Eigensolver_lapack|zhegvx                                         104      37.31 ms       0.01     100.00     346.46 us     320.02 us     621.43 us
 sirius::Q_operator::initialize                                    136      33.94 ms       0.01     100.00     164.84 us     147.94 us       2.82 ms
 sirius::Unit_cell::update                                          11      29.49 ms       0.01     100.00       2.60 ms       2.38 ms       3.18 ms
 qe|punch                                                            1      28.07 ms       0.01     100.00      28.07 ms      28.07 ms      28.07 ms
 sddk::wf_inner                                                    416      27.52 ms       0.01     100.00      60.63 us      36.42 us     125.12 us
 sirius::Unit_cell::get_symmetry                                    11      27.32 ms       0.01     100.00       2.35 ms       2.21 ms       2.83 ms
 sirius::Crystal_symmetry                                           11      26.76 ms       0.01     100.00       2.28 ms       2.15 ms       2.79 ms
 sddk::wf_inner|pw                                                 416      26.20 ms       0.01     100.00      58.33 us      35.41 us     114.83 us
 sirius::Crystal_symmetry|spg                                       11      23.53 ms       0.01     100.00       1.97 ms       1.86 ms       2.50 ms
 qe|set_vrs                                                          2      23.28 ms       0.01     100.00      11.64 ms       9.88 ms      13.40 ms
 v_h                                                                 2      23.14 ms       0.01     100.00      11.57 ms      10.80 ms      12.34 ms
 sirius::K_point_set::sync_band                                    240      22.02 ms       0.01     100.00      34.18 us      20.70 us       5.46 ms
 sddk::matrix_storage::remap_forward                              8396      19.99 ms       0.01     100.00       2.01 us     772.00 ns      51.25 us
 sirius::D_operator::initialize                                    136      19.85 ms       0.01     100.00      84.11 us      80.55 us       2.65 ms
 Eigensolver_lapack|chegvx                                         104      14.95 ms       0.01     100.00     120.05 us     103.76 us       1.04 ms
 sddk::wf_trans                                                    208      14.69 ms       0.01     100.00      43.95 us      26.18 us     489.05 us
 sddk::wf_trans|pw                                                 208      14.10 ms       0.01     100.00      41.49 us      24.29 us     484.81 us
 interpolate                                                         2      12.67 ms       0.00     100.00       6.33 ms       6.28 ms       6.39 ms
 sirius::Unit_cell::initialize                                       2       6.93 ms       0.00     100.00       3.47 ms       3.38 ms       3.55 ms
 sddk::matrix_storage::remap_backward                             6836       4.72 ms       0.00     100.00     578.00 ns     102.00 ns      28.74 us
 qe|setup                                                            1       4.15 ms       0.00     100.00       4.15 ms       4.15 ms       4.15 ms
 sirius::Unit_cell::find_nearest_neighbours                         11       2.08 ms       0.00     100.00     163.75 us      74.12 us     446.94 us
 sirius::Atom_type::init                                             6     932.10 us       0.00     100.00     147.54 us     116.82 us     233.44 us
 sirius::Force::symmetrize                                          48     706.96 us       0.00     100.00      13.90 us       6.25 us      38.98 us
 ffts                                                                2     601.64 us       0.00     100.00     300.82 us     276.57 us     325.06 us
 sirius::Non_local_operator                                        272     382.51 us       0.00     100.00       1.21 us     151.00 ns      16.83 us
 sirius::Beta_projectors_base::prepare                             208     303.31 us       0.00     100.00       1.25 us     621.00 ns       5.93 us
 sirius::find_sym_atom                                             264     271.15 us       0.00     100.00     584.00 ns     443.00 ns      23.68 us
 sirius::K_point::K_point                                           52     202.75 us       0.00     100.00       3.23 us       2.49 us      23.67 us
 sirius::Crystal_symmetry|mag                                       11     168.85 us       0.00     100.00      14.26 us       9.77 us      26.74 us
 qe|paw_becsum                                                       2     150.45 us       0.00     100.00      75.23 us      63.97 us      86.48 us
 sirius::initialize                                                  1     118.85 us       0.00     100.00     118.85 us     118.85 us     118.85 us
 PAW_symme                                                           2      99.76 us       0.00     100.00      49.88 us      48.27 us      51.50 us
 sirius::Simulation_context::init_comm                               2      99.52 us       0.00     100.00      49.76 us      42.80 us      56.73 us
 sddk::wf_inner|scale_back                                         416      97.11 us       0.00     100.00     182.00 ns      77.00 ns       1.36 us
 sirius::Beta_projectors_base::dismiss                             208      50.62 us       0.00     100.00      67.00 ns      40.00 ns      17.12 us
 sddk::wf_inner|scale                                              416      46.43 us       0.00     100.00      81.00 ns      43.00 ns      11.29 us
 sirius::finalize                                                    1       8.02 us       0.00     100.00       8.02 us       8.02 us       8.02 us

=====================================================================================================================================================
Note: The following floating-point exceptions are signalling: IEEE_UNDERFLOW_FLAG IEEE_DENORMAL
