SIRIUS 7.2.8, git hash: 589ccf589dda66cbcce7b02683cba0c7a6e3f3ae

     Program PWSCF v.6.8 starts on 11Oct2021 at 13:44: 9 

     This program is part of the open-source Quantum ESPRESSO suite
     for quantum simulation of materials; please cite
         "P. Giannozzi et al., J. Phys.:Condens. Matter 21 395502 (2009);
         "P. Giannozzi et al., J. Phys.:Condens. Matter 29 465901 (2017);
         "P. Giannozzi et al., J. Chem. Phys. 152 154105 (2020);
          URL http://www.quantum-espresso.org", 
     in publications or presentations arising from this work. More details at
     http://www.quantum-espresso.org/quote

     Parallel version (MPI & OpenMP), running on      16 processor cores
     Number of MPI processes:                 1
     Threads/MPI process:                    16

     MPI processes distributed on     1 nodes
     28926 MiB available memory on the printing compute node when the environment starts

     Reading input from aiida.in

     Current dimensions of program PWSCF are:
     Max number of different atomic species (ntypx) = 10
     Max number of k-points (npk) =  40000
     Max angular momentum in pseudopotentials (lmaxx) =  4
     file O.pbe-n-kjpaw_psl.0.1.UPF: wavefunction(s)  2P renormalized
     Message from routine setup:
     using ibrav=0 with symmetry is DISCOURAGED, use correct ibrav instead

     Subspace diagonalization in iterative solution of the eigenvalue problem:
     a serial algorithm will be used


     G-vector sticks info
     --------------------
     sticks:   dense  smooth     PW     G-vecs:    dense   smooth      PW
     Sum        4643     917    305               152303    13575    2527

     Using Slab Decomposition



     bravais-lattice index     =            0
     lattice parameter (alat)  =      10.5934  a.u.
     unit-cell volume          =     285.2215 (a.u.)^3
     number of atoms/cell      =            4
     number of atomic types    =            3
     number of electrons       =        35.00
     number of Kohn-Sham states=           22
     kinetic-energy cutoff     =      50.0000  Ry
     charge density cutoff     =    1000.0000  Ry
     scf convergence threshold =      1.0E-11
     mixing beta               =       0.7000
     number of iterations used =            8  plain     mixing
     energy convergence thresh.=      1.0E-04
     force convergence thresh. =      1.0E-03
     press convergence thresh. =      5.0E-01
     Exchange-correlation= SLA  PW   PBX  PBC
                           (   1   4   3   4   0   0   0)
     nstep                     =           50


     celldm(1)=  10.593382  celldm(2)=   0.000000  celldm(3)=   0.000000
     celldm(4)=   0.000000  celldm(5)=   0.000000  celldm(6)=   0.000000

     crystal axes: (cart. coord. in units of alat)
               a(1) = (   0.269988   0.155878   0.950162 )  
               a(2) = (  -0.269988   0.155878   0.950162 )  
               a(3) = (   0.000000  -0.311756   0.950162 )  

     reciprocal axes: (cart. coord. in units 2 pi/alat)
               b(1) = (  1.851932  1.069213  0.350817 )  
               b(2) = ( -1.851932  1.069213  0.350817 )  
               b(3) = ( -0.000000 -2.138427  0.350817 )  


     PseudoPot. # 1 for Cr read from file:
     ./pseudo/cr_pbe_v1.5.uspp.F.UPF
     MD5 check sum: 0d52af634a40206e4dee301ad30da4bf
     Pseudo is Ultrasoft + core correction, Zval = 14.0
     Generated by new atomic code, or converted to UPF format
     Using radial grid of  857 points,  6 beta functions with: 
                l(1) =   0
                l(2) =   0
                l(3) =   1
                l(4) =   1
                l(5) =   2
                l(6) =   2
     Q(r) pseudized with  8 coefficients,  rinner =    0.950   0.950   0.950
                                                       0.950   0.950

     PseudoPot. # 2 for Na read from file:
     ./pseudo/Na_ONCV_PBE-1.0.upf
     MD5 check sum: 8619a8fc970a30df18a75067eea56141
     Pseudo is Norm-conserving, Zval =  9.0
     Generated using ONCVPSP code by D. R. Hamann
     Using radial grid of  602 points,  4 beta functions with: 
                l(1) =   0
                l(2) =   0
                l(3) =   1
                l(4) =   1

     PseudoPot. # 3 for O  read from file:
     ./pseudo/O.pbe-n-kjpaw_psl.0.1.UPF
     MD5 check sum: 3f94a2996a3169367d6eb21d9b593f20
     Pseudo is Projector augmented-wave + core cor, Zval =  6.0
     Generated using "atomic" code by A. Dal Corso  v.5.0.99 svn rev. 10869
     Shape of augmentation charge: BESSEL
     Using radial grid of 1095 points,  4 beta functions with: 
                l(1) =   0
                l(2) =   0
                l(3) =   1
                l(4) =   1
     Q(r) pseudized with 0 coefficients 


     atomic species   valence    mass     pseudopotential
        Cr            14.00    51.99600     Cr( 1.00)
        Na             9.00    22.98977     Na( 1.00)
        O              6.00    15.99940     O ( 1.00)

     12 Sym. Ops., with inversion, found


                                    s                        frac. trans.

      isym =  1     identity                                     

 cryst.   s( 1) = (     1          0          0      )
                  (     0          1          0      )
                  (     0          0          1      )

 cart.    s( 1) = (  1.0000000  0.0000000  0.0000000 )
                  (  0.0000000  1.0000000 -0.0000000 )
                  ( -0.0000000  0.0000000  1.0000000 )


      isym =  2     180 deg rotation - cart. axis [1,0,0]        

 cryst.   s( 2) = (     0         -1          0      )
                  (    -1          0          0      )
                  (     0          0         -1      )

 cart.    s( 2) = (  1.0000000 -0.0000000 -0.0000000 )
                  ( -0.0000000 -1.0000000  0.0000000 )
                  ( -0.0000000 -0.0000000 -1.0000000 )


      isym =  3     120 deg rotation - cryst. axis [0,0,1]       

 cryst.   s( 3) = (     0          1          0      )
                  (     0          0          1      )
                  (     1          0          0      )

 cart.    s( 3) = ( -0.5000000 -0.8660254  0.0000000 )
                  (  0.8660254 -0.5000000 -0.0000000 )
                  ( -0.0000000 -0.0000000  1.0000000 )


      isym =  4     120 deg rotation - cryst. axis [0,0,-1]      

 cryst.   s( 4) = (     0          0          1      )
                  (     1          0          0      )
                  (     0          1          0      )

 cart.    s( 4) = ( -0.5000000  0.8660254  0.0000000 )
                  ( -0.8660254 -0.5000000 -0.0000000 )
                  (  0.0000000  0.0000000  1.0000000 )


      isym =  5     180 deg rotation - cryst. axis [0,1,0]       

 cryst.   s( 5) = (    -1          0          0      )
                  (     0          0         -1      )
                  (     0         -1          0      )

 cart.    s( 5) = ( -0.5000000 -0.8660254 -0.0000000 )
                  ( -0.8660254  0.5000000  0.0000000 )
                  (  0.0000000 -0.0000000 -1.0000000 )


      isym =  6     180 deg rotation - cryst. axis [1,1,0]       

 cryst.   s( 6) = (     0          0         -1      )
                  (     0         -1          0      )
                  (    -1          0          0      )

 cart.    s( 6) = ( -0.5000000  0.8660254 -0.0000000 )
                  (  0.8660254  0.5000000  0.0000000 )
                  (  0.0000000  0.0000000 -1.0000000 )


      isym =  7     inversion                                    

 cryst.   s( 7) = (    -1          0          0      )
                  (     0         -1          0      )
                  (     0          0         -1      )

 cart.    s( 7) = ( -1.0000000 -0.0000000 -0.0000000 )
                  ( -0.0000000 -1.0000000  0.0000000 )
                  (  0.0000000 -0.0000000 -1.0000000 )


      isym =  8     inv. 180 deg rotation - cart. axis [1,0,0]   

 cryst.   s( 8) = (     0          1          0      )
                  (     1          0          0      )
                  (     0          0          1      )

 cart.    s( 8) = ( -1.0000000  0.0000000  0.0000000 )
                  (  0.0000000  1.0000000 -0.0000000 )
                  (  0.0000000  0.0000000  1.0000000 )


      isym =  9     inv. 120 deg rotation - cryst. axis [0,0,1]  

 cryst.   s( 9) = (     0         -1          0      )
                  (     0          0         -1      )
                  (    -1          0          0      )

 cart.    s( 9) = (  0.5000000  0.8660254 -0.0000000 )
                  ( -0.8660254  0.5000000  0.0000000 )
                  (  0.0000000  0.0000000 -1.0000000 )


      isym = 10     inv. 120 deg rotation - cryst. axis [0,0,-1] 

 cryst.   s(10) = (     0          0         -1      )
                  (    -1          0          0      )
                  (     0         -1          0      )

 cart.    s(10) = (  0.5000000 -0.8660254 -0.0000000 )
                  (  0.8660254  0.5000000  0.0000000 )
                  ( -0.0000000 -0.0000000 -1.0000000 )


      isym = 11     inv. 180 deg rotation - cryst. axis [0,1,0]  

 cryst.   s(11) = (     1          0          0      )
                  (     0          0          1      )
                  (     0          1          0      )

 cart.    s(11) = (  0.5000000  0.8660254  0.0000000 )
                  (  0.8660254 -0.5000000 -0.0000000 )
                  ( -0.0000000  0.0000000  1.0000000 )


      isym = 12     inv. 180 deg rotation - cryst. axis [1,1,0]  

 cryst.   s(12) = (     0          0          1      )
                  (     0          1          0      )
                  (     1          0          0      )

 cart.    s(12) = (  0.5000000 -0.8660254  0.0000000 )
                  ( -0.8660254 -0.5000000 -0.0000000 )
                  ( -0.0000000 -0.0000000  1.0000000 )


   Cartesian axes

     site n.     atom                  positions (alat units)
         1           Cr  tau(   1) = (   0.0000000   0.0000000   1.4252435  )
         2           Na  tau(   2) = (   0.0000000   0.0000000   2.8504869  )
         3           O   tau(   3) = (   0.0000000   0.0000000   0.6594884  )
         4           O   tau(   4) = (   0.0000000   0.0000000   2.1909986  )

   Crystallographic axes

     site n.     atom                  positions (cryst. coord.)
         1           Cr  tau(   1) = (  0.5000000  0.5000000  0.5000000  )
         2           Na  tau(   2) = (  1.0000000  1.0000000  1.0000000  )
         3           O   tau(   3) = (  0.2313599  0.2313599  0.2313599  )
         4           O   tau(   4) = (  0.7686401  0.7686401  0.7686401  )

     number of k points=    13  Gaussian smearing, width (Ry)=  0.1000
                       cart. coord. in units 2pi/alat
        k(    1) = (   0.0000000   0.0000000   0.0000000), wk =   0.0312500
        k(    2) = (  -0.0000000  -0.5346067   0.0877043), wk =   0.1875000
        k(    3) = (   0.0000000   1.0692135  -0.1754086), wk =   0.0937500
        k(    4) = (  -0.4629830  -0.2673034   0.1754086), wk =   0.1875000
        k(    5) = (  -0.4629830   1.3365168  -0.0877043), wk =   0.3750000
        k(    6) = (  -0.4629830   0.8019101   0.0000000), wk =   0.1875000
        k(    7) = (   0.9259660   0.5346067  -0.3508173), wk =   0.0937500
        k(    8) = (  -0.0000000   0.0000000   0.2631129), wk =   0.0625000
        k(    9) = (   0.0000000   1.6038202   0.0000000), wk =   0.1875000
        k(   10) = (   0.0000000   1.0692135   0.0877043), wk =   0.1875000
        k(   11) = (   1.3889490   0.8019101  -0.2631129), wk =   0.1875000
        k(   12) = (   1.3889490   0.2673034  -0.1754086), wk =   0.1875000
        k(   13) = (   0.0000000   0.0000000  -0.5262259), wk =   0.0312500

                       cryst. coord.
        k(    1) = (   0.0000000   0.0000000   0.0000000), wk =   0.0312500
        k(    2) = (  -0.0000000  -0.0000000   0.2500000), wk =   0.1875000
        k(    3) = (   0.0000000   0.0000000  -0.5000000), wk =   0.0937500
        k(    4) = (  -0.0000000   0.2500000   0.2500000), wk =   0.1875000
        k(    5) = (   0.0000000   0.2500000  -0.5000000), wk =   0.3750000
        k(    6) = (  -0.0000000   0.2500000  -0.2500000), wk =   0.1875000
        k(    7) = (   0.0000000  -0.5000000  -0.5000000), wk =   0.0937500
        k(    8) = (   0.2500000   0.2500000   0.2500000), wk =   0.0625000
        k(    9) = (   0.2500000   0.2500000  -0.5000000), wk =   0.1875000
        k(   10) = (   0.2500000   0.2500000  -0.2500000), wk =   0.1875000
        k(   11) = (   0.2500000  -0.5000000  -0.5000000), wk =   0.1875000
        k(   12) = (   0.2500000  -0.5000000  -0.2500000), wk =   0.1875000
        k(   13) = (  -0.5000000  -0.5000000  -0.5000000), wk =   0.0312500

     Dense  grid:   152303 G-vectors     FFT dimensions: ( 108, 108, 108)

     Smooth grid:    13575 G-vectors     FFT dimensions: (  48,  48,  48)

SIRIUS version : 7.2.8
git hash       : 589ccf589dda66cbcce7b02683cba0c7a6e3f3ae
git branch     : heads/experimental/switch-fp32-to-fp64
build time     : 2021-10-08 15:54:50
start time     : Mon, 11 Oct 2021 13:44:13

number of MPI ranks           : 1
MPI grid                      : 1 1
maximum number of OMP threads : 16
number of MPI ranks per node  : 1
page size (Kb)                : 4
number of pages               : 16466695
available memory (GB)         : 62

FFT context for density and potential
=====================================
  comm size                             : 1
  plane wave cutoff                     : 31.622777
  grid size                             : 108 108 108   total : 1259712
  grid limits                           : -53 54   -53 54   -53 54
  number of G-vectors within the cutoff : 76152
  local number of G-vectors             : 76152
  number of G-shells                    : 12121

FFT context for coarse grid
=====================================
  comm size                             : 1
  plane wave cutoff                     : 14.142136
  grid size                             : 50 50 50   total : 125000
  grid limits                           : -24 25   -24 25   -24 25
  number of G-vectors within the cutoff : 6788
  local number of G-vectors             : 6788
  number of G-shells                    : 1210

number of local G-vector blocks: 1

Unit cell
--------------------------------------------------------------------------------
lattice vectors
  a1 :       2.8600891671       1.6512732506      10.0654319112 
  a2 :      -2.8600891671       1.6512732506      10.0654319112 
  a3 :       0.0000000000      -3.3025465012      10.0654319112 
reciprocal lattice vectors
  b1 :       1.0984247238       0.6341758100       0.2080780160 
  b2 :      -1.0984247238       0.6341758100       0.2080780160 
  b3 :      -0.0000000000      -1.2683516199       0.2080780160 

unit cell volume :       285.22145072 [a.u.^3]
1/sqrt(omega)    :         0.05921189
MT volume        : 0.000000 ( 0.00%)
IT volume        : 285.221451 (100.00%)

number of atom types : 3
type id : 0   symbol :      mt_radius : 206.524747, num_atoms: 1
type id : 1   symbol :      mt_radius :   6.010000, num_atoms: 1
type id : 2   symbol :      mt_radius :  99.043432, num_atoms: 2
total number of atoms : 4
number of symmetry classes : 3
number of PAW atoms : 2

atom id              position                    vector_field        type id    class id
----------------------------------------------------------------------------------------
     0      0.500000 0.500000 0.500000   0.000000 0.000000 0.000000        0           0
     1      1.000000 1.000000 1.000000   0.000000 0.000000 0.000000        1           1
     2      0.231360 0.231360 0.231360   0.000000 0.000000 0.000000        2           2
     3      0.768640 0.768640 0.768640   0.000000 0.000000 0.000000        2           2

class id : 0   atom id : 0 
class id : 1   atom id : 1 
class id : 2   atom id : 2 3 

atom id              position (Cartesian, a.u.)
----------------------------------------------------------------------------------------
     0          0.000000000000     0.000000000000    15.098147866697
     1          0.000000000000     0.000000000000    30.196295733395
     2          0.000000000000    -0.000000000000     6.986211790170
     3         -0.000000000000    -0.000000000000    23.210083943413

class id : 0   atom id : 0 
class id : 1   atom id : 1 
class id : 2   atom id : 2 3 

minimum bond length:       3.837050868507

number of pseudo wave-functions: 18

space group number   : 166
international symbol : R-3m
Hall symbol          : -R 3 2"
space group transformation matrix : 
    0.666667    -0.333333    -0.333333 
    0.333333     0.333333    -0.666667 
    0.333333     0.333333     0.333333 
space group origin shift : 
   -0.000000    -0.000000     0.000000
number of space group operations  : 12
number of magnetic group operations : 12
metric tensor error:     0.000000000625
rotation matrix error:     0.000000000066
symmetry operations  : 
isym : 0
R :   1   0   0 
      0   1   0 
      0   0   1 
Rc:   1.0000   0.0000  -0.0000 
      0.0000   1.0000   0.0000 
      0.0000   0.0000   1.0000 
t :   0.0000   0.0000   0.0000 
S :   1.0000   0.0000  -0.0000 
      0.0000   1.0000   0.0000 
      0.0000   0.0000   1.0000 
proper: 1

isym : 1
R :  -1   0   0 
      0  -1   0 
      0   0  -1 
Rc:  -1.0000  -0.0000   0.0000 
     -0.0000  -1.0000  -0.0000 
     -0.0000  -0.0000  -1.0000 
t :  -0.0000  -0.0000  -0.0000 
S :   1.0000   0.0000  -0.0000 
      0.0000   1.0000   0.0000 
      0.0000   0.0000   1.0000 
proper: -1

isym : 2
R :   0   0   1 
      1   0   0 
      0   1   0 
Rc:  -0.5000  -0.8660   0.0000 
      0.8660  -0.5000   0.0000 
      0.0000   0.0000   1.0000 
t :   0.0000  -0.0000   0.0000 
S :   1.0000   0.0000  -0.0000 
      0.0000   1.0000   0.0000 
      0.0000   0.0000   1.0000 
proper: 1

isym : 3
R :   0   0  -1 
     -1   0   0 
      0  -1   0 
Rc:   0.5000   0.8660  -0.0000 
     -0.8660   0.5000  -0.0000 
     -0.0000  -0.0000  -1.0000 
t :  -0.0000  -0.0000  -0.0000 
S :   1.0000   0.0000  -0.0000 
      0.0000   1.0000   0.0000 
      0.0000   0.0000   1.0000 
proper: -1

isym : 4
R :   0   1   0 
      0   0   1 
      1   0   0 
Rc:  -0.5000   0.8660  -0.0000 
     -0.8660  -0.5000  -0.0000 
      0.0000   0.0000   1.0000 
t :   0.0000  -0.0000  -0.0000 
S :   1.0000   0.0000  -0.0000 
      0.0000   1.0000   0.0000 
      0.0000   0.0000   1.0000 
proper: 1

isym : 5
R :   0  -1   0 
      0   0  -1 
     -1   0   0 
Rc:   0.5000  -0.8660   0.0000 
      0.8660   0.5000   0.0000 
     -0.0000  -0.0000  -1.0000 
t :  -0.0000  -0.0000  -0.0000 
S :   1.0000   0.0000  -0.0000 
      0.0000   1.0000   0.0000 
      0.0000   0.0000   1.0000 
proper: -1

isym : 6
R :   0   0  -1 
      0  -1   0 
     -1   0   0 
Rc:  -0.5000   0.8660  -0.0000 
      0.8660   0.5000   0.0000 
     -0.0000  -0.0000  -1.0000 
t :  -0.0000  -0.0000  -0.0000 
S :   1.0000   0.0000  -0.0000 
      0.0000   1.0000   0.0000 
      0.0000   0.0000   1.0000 
proper: 1

isym : 7
R :   0   0   1 
      0   1   0 
      1   0   0 
Rc:   0.5000  -0.8660   0.0000 
     -0.8660  -0.5000  -0.0000 
      0.0000   0.0000   1.0000 
t :   0.0000   0.0000  -0.0000 
S :   1.0000   0.0000  -0.0000 
      0.0000   1.0000   0.0000 
      0.0000   0.0000   1.0000 
proper: -1

isym : 8
R :   0  -1   0 
     -1   0   0 
      0   0  -1 
Rc:   1.0000   0.0000  -0.0000 
     -0.0000  -1.0000  -0.0000 
     -0.0000  -0.0000  -1.0000 
t :  -0.0000  -0.0000  -0.0000 
S :   1.0000   0.0000  -0.0000 
      0.0000   1.0000   0.0000 
      0.0000   0.0000   1.0000 
proper: 1

isym : 9
R :   0   1   0 
      1   0   0 
      0   0   1 
Rc:  -1.0000  -0.0000   0.0000 
      0.0000   1.0000   0.0000 
      0.0000   0.0000   1.0000 
t :   0.0000  -0.0000   0.0000 
S :   1.0000   0.0000  -0.0000 
      0.0000   1.0000   0.0000 
      0.0000   0.0000   1.0000 
proper: -1

isym : 10
R :  -1   0   0 
      0   0  -1 
      0  -1   0 
Rc:  -0.5000  -0.8660   0.0000 
     -0.8660   0.5000  -0.0000 
     -0.0000  -0.0000  -1.0000 
t :  -0.0000  -0.0000  -0.0000 
S :   1.0000   0.0000  -0.0000 
      0.0000   1.0000   0.0000 
      0.0000   0.0000   1.0000 
proper: 1

isym : 11
R :   1   0   0 
      0   0   1 
      0   1   0 
Rc:   0.5000   0.8660  -0.0000 
      0.8660  -0.5000   0.0000 
      0.0000   0.0000   1.0000 
t :   0.0000  -0.0000   0.0000 
S :   1.0000   0.0000  -0.0000 
      0.0000   1.0000   0.0000 
      0.0000   0.0000   1.0000 
proper: -1


label          : Cr
--------------------------------------------------------------------------------
symbol         : 
name           : 
zn             : 14
mass           : 51.996000
mt_radius      : 206.524747
num_mt_points  : 857
grid_origin    : 0.000000
grid_name      : external

number of core electrons    : 0.000000
number of valence electrons : 14.000000

total number of radial functions : 6
lmax of radial functions         : 2
max. number of radial functions  : 2
total number of basis functions  : 18
number of aw basis functions     : 0
number of lo basis functions     : 18
lmax of beta-projectors          : 2
number of ps wavefunctions       : 4
charge augmentation              : true
vloc is set                      : true
ps_rho_core is set               : true
ps_rho_total is set              : true
Hubbard correction               : false
spin-orbit coupling              : false

label          : Na
--------------------------------------------------------------------------------
symbol         : 
name           : 
zn             : 9
mass           : 22.989770
mt_radius      : 6.010000
num_mt_points  : 602
grid_origin    : 0.000000
grid_name      : external

number of core electrons    : 0.000000
number of valence electrons : 9.000000

total number of radial functions : 4
lmax of radial functions         : 1
max. number of radial functions  : 2
total number of basis functions  : 8
number of aw basis functions     : 0
number of lo basis functions     : 8
lmax of beta-projectors          : 1
number of ps wavefunctions       : 0
charge augmentation              : false
vloc is set                      : true
ps_rho_core is set               : true
ps_rho_total is set              : true
Hubbard correction               : false
spin-orbit coupling              : false

label          : O
--------------------------------------------------------------------------------
symbol         : 
name           : 
zn             : 6
mass           : 15.999400
mt_radius      : 99.043432
num_mt_points  : 1095
grid_origin    : 0.000114
grid_name      : external

number of core electrons    : 0.000000
number of valence electrons : 6.000000

total number of radial functions : 4
lmax of radial functions         : 1
max. number of radial functions  : 2
total number of basis functions  : 8
number of aw basis functions     : 0
number of lo basis functions     : 8
lmax of beta-projectors          : 1
number of ps wavefunctions       : 2
charge augmentation              : true
vloc is set                      : true
ps_rho_core is set               : true
ps_rho_total is set              : true
Hubbard correction               : false
spin-orbit coupling              : false

Basic information
--------------------------------------------------------------------------------
total nuclear charge               : 35
number of core electrons           : 0.000000
number of valence electrons        : 35.000000
total number of electrons          : 35.000000
extra charge                       : 0.000000
total number of aw basis functions : 0
total number of lo basis functions : 42
number of first-variational states : -1
number of bands                    : 22
number of spins                    : 1
number of magnetic dimensions      : 0
number of spinor components        : 1
number of spinors per band index   : 1
lmax_apw                           : -1
lmax_rho                           : 4
lmax_pot                           : 4
lmax_rf                            : 2
smearing type                      : gaussian
smearing width                     : 0.050000
cyclic block size                  : 16
|G+k| cutoff                       : 7.071068
symmetry                           : true
so_correction                      : false
valence relativity                 : zora
core relativity                    : Dirac
standard eigen-value solver        : LAPACK
generalized eigen-value solver     : LAPACK
processing unit                    : CPU

iterative solver                   : davidson
number of steps                    : 20
subspace size                      : 2
early restart ratio                : 0.50
precision_wf                       : fp32
precision_hs                       : fp32

spglib version: 1.16.1
HDF5 version: 1.10.7
Libxc version: 5.1.5

XC functionals
==============
1) XC_GGA_X_PBE: Perdew, Burke & Ernzerhof
J. P. Perdew, K. Burke, and M. Ernzerhof, Phys. Rev. Lett. 77, 3865 (1996) (10.1103/PhysRevLett.77.3865)
J. P. Perdew, K. Burke, and M. Ernzerhof, Phys. Rev. Lett. 78, 1396 (1997) (10.1103/PhysRevLett.78.1396)

2) XC_GGA_C_PBE: Perdew, Burke & Ernzerhof
J. P. Perdew, K. Burke, and M. Ernzerhof, Phys. Rev. Lett. 77, 3865 (1996) (10.1103/PhysRevLett.77.3865)
J. P. Perdew, K. Burke, and M. Ernzerhof, Phys. Rev. Lett. 78, 1396 (1997) (10.1103/PhysRevLett.78.1396)


memory consumption
==================
approximate number of G+k vectors        : 1702
approximate number of G vectors          : 76155
approximate number of coarse G vectors   : 6811
approximate size of wave-functions for each k-point: 0 Mb, 0 Mb/rank
approximate memory consumption of Davidson solver: 6 Mb/rank
approximate memory consumption of charge density augmentation: 598 Mb/rank
approximate memory consumption of FFT transforms: 21 Mb/rank

total number of k-points : 13
--------------------------------------------------------------------------------
  ik                vk                    weight  num_gkvec
--------------------------------------------------------------------------------
   0     0.0000   0.0000   0.0000       0.015625       1697
   1    -0.0000  -0.0000   0.2500       0.093750       1707
   2     0.0000   0.0000  -0.5000       0.046875       1692
   3    -0.0000   0.2500   0.2500       0.093750       1716
   4    -0.0000   0.2500  -0.5000       0.187500       1694
   5    -0.0000   0.2500  -0.2500       0.093750       1696
   6     0.0000  -0.5000  -0.5000       0.046875       1702
   7     0.2500   0.2500   0.2500       0.031250       1709
   8     0.2500   0.2500  -0.5000       0.093750       1710
   9     0.2500   0.2500  -0.2500       0.093750       1694
  10     0.2500  -0.5000  -0.5000       0.093750       1720
  11     0.2500  -0.5000  -0.2500       0.093750       1700
  12    -0.5000  -0.5000  -0.5000       0.015625       1696

=== Warning at line 217 of file /home/ubuntu/SIRIUS/src/density/density.cpp ===
wrong initial charge density
  integral of the density : 33.863275573
  target number of electrons : 35

[find] 
[find] density_tol  : 3.16228e-06
[find] energy_tol   : 0.0001
[find] itsol_tol    : 0.01
[find] num_dft_iter : 100
[find] 
[find] +------------------------------+
[find] | SCF iteration   0 out of 100|
[find] +------------------------------+
[find] 
[solve] iterative solver tolerance: 1.0000e-02
[davidson] eigen-value tolerance  :     0.010000000000
[davidson] empty states tolerance :     0.010000000000
[davidson] eigen-value tolerance  :     0.010000000000
[davidson] empty states tolerance :     0.010000000000
[davidson] eigen-value tolerance  :     0.010000000000
[davidson] empty states tolerance :     0.010000000000
[davidson] eigen-value tolerance  :     0.010000000000
[davidson] empty states tolerance :     0.010000000000
[davidson] eigen-value tolerance  :     0.010000000000
[davidson] empty states tolerance :     0.010000000000
[davidson] eigen-value tolerance  :     0.010000000000
[davidson] empty states tolerance :     0.010000000000
[davidson] eigen-value tolerance  :     0.010000000000
[davidson] empty states tolerance :     0.010000000000
[davidson] eigen-value tolerance  :     0.010000000000
[davidson] empty states tolerance :     0.010000000000
[davidson] eigen-value tolerance  :     0.010000000000
[davidson] empty states tolerance :     0.010000000000
[davidson] eigen-value tolerance  :     0.010000000000
[davidson] empty states tolerance :     0.010000000000
[davidson] eigen-value tolerance  :     0.010000000000
[davidson] empty states tolerance :     0.010000000000
[davidson] eigen-value tolerance  :     0.010000000000
[davidson] empty states tolerance :     0.010000000000
[davidson] eigen-value tolerance  :     0.010000000000
[davidson] empty states tolerance :     0.010000000000
[solve] average number of iterations:     6.076923
[solve] Lowest band energies
ik :  0,    -2.207146   -1.160398   -1.160381   -1.158398   -1.273711   -0.418534   -0.376306   -0.268889   -0.267326    0.091358
ik :  1,    -2.206770   -1.164305   -1.161215   -1.157619   -1.273428   -0.401607   -0.376256   -0.273134   -0.270895    0.107069
ik :  2,    -2.206385   -1.168141   -1.162036   -1.156841   -1.272869   -0.385073   -0.375073   -0.277654   -0.273932    0.078205
ik :  3,    -2.206768   -1.164300   -1.161217   -1.157620   -1.273407   -0.402371   -0.375179   -0.272156   -0.271189   -0.268539
ik :  4,    -2.206390   -1.166623   -1.163573   -1.156848   -1.272873   -0.382899   -0.377472   -0.275447   -0.273931   -0.271064
ik :  5,    -2.206388   -1.166626   -1.163572   -1.156844   -1.272787   -0.383388   -0.376896   -0.275728   -0.273872   -0.271102
ik :  6,    -2.206387   -1.168122   -1.162043   -1.156831   -1.272774   -0.381360   -0.379009   -0.277385   -0.272774   -0.269811
ik :  7,    -2.207144   -1.160398   -1.160382   -1.158409   -1.274010   -0.420162   -0.373486   -0.270683   -0.267363    0.098899
ik :  8,    -2.206766   -1.164302   -1.161213   -1.157642   -1.273394   -0.402130   -0.375812   -0.273493   -0.270499    0.102336
ik :  9,    -2.206387   -1.168136   -1.162034   -1.156840   -1.272649   -0.383705   -0.376514   -0.277477   -0.273075    0.074192
ik : 10,    -2.206768   -1.164300   -1.161221   -1.157634   -1.273292   -0.402881   -0.374719   -0.272849   -0.270650   -0.268661
ik : 11,    -2.206389   -1.166616   -1.163579   -1.156848   -1.272648   -0.382206   -0.378102   -0.275430   -0.273483   -0.271081
ik : 12,    -2.207145   -1.160394   -1.160381   -1.158423   -1.273935   -0.421630   -0.370759   -0.272446   -0.267346    0.108693

=== Warning at line 1417 of file /home/ubuntu/SIRIUS/src/density/density.cpp ===
wrong unsymmetrized density
  obtained value : 3.500001e+01
  target value : 3.500000e+01
  difference : 6.500111e-06


[find] 
[find] Charges and magnetic moments
[find] --------------------------------------------------------------------------------
[find] total charge          : 35.000005
[find] 
[find] Energy
[find] --------------------------------------------------------------------------------
[find] valence_eval_sum               :     -13.69958696
[find] <rho|V^{XC}>                   :     -30.69187047
[find] <rho|E^{XC}>                   :     -24.93849851
[find] <mag|B^{XC}>                   :       0.00000000
[find] <rho|V^{H}>                    :      91.65555063
[find] one-electron contribution      :     -74.51651056 (Ha),    -149.03302113 (Ry)
[find] hartree contribution           :      45.82777531
[find] xc contribution                :     -24.93849851
[find] ewald contribution             :    -107.69851775
[find] PAW contribution               :      -9.52086795
[find] smearing (-TS)                 :      -0.08633246
[find] SCF correction                 :      -0.29917701
[find] Total energy                   :    -171.23212893 (Ha),    -342.46425786 (Ry)
[find] 
[find] band gap (eV)                  :       0.00000000
[find] Efermi                         :       0.42376659
[find] 
[find] iteration : 0, RMS : 1.257094786789e+00, energy difference : -1.712321289282e+02
[find] 
[find] +------------------------------+
[find] | SCF iteration   1 out of 100|
[find] +------------------------------+
[find] 
[solve] iterative solver tolerance: 4.5151e-03
[davidson] eigen-value tolerance  :     0.004515106580
[davidson] empty states tolerance :     0.004515106580
[davidson] eigen-value tolerance  :     0.004515106580
[davidson] empty states tolerance :     0.004515106580
[davidson] eigen-value tolerance  :     0.004515106580
[davidson] empty states tolerance :     0.004515106580
[davidson] eigen-value tolerance  :     0.004515106580
[davidson] empty states tolerance :     0.004515106580
[davidson] eigen-value tolerance  :     0.004515106580
[davidson] empty states tolerance :     0.004515106580
[davidson] eigen-value tolerance  :     0.004515106580
[davidson] empty states tolerance :     0.004515106580
[davidson] eigen-value tolerance  :     0.004515106580
[davidson] empty states tolerance :     0.004515106580
[davidson] eigen-value tolerance  :     0.004515106580
[davidson] empty states tolerance :     0.004515106580
[davidson] eigen-value tolerance  :     0.004515106580
[davidson] empty states tolerance :     0.004515106580
[davidson] eigen-value tolerance  :     0.004515106580
[davidson] empty states tolerance :     0.004515106580
[davidson] eigen-value tolerance  :     0.004515106580
[davidson] empty states tolerance :     0.004515106580
[davidson] eigen-value tolerance  :     0.004515106580
[davidson] empty states tolerance :     0.004515106580
[davidson] eigen-value tolerance  :     0.004515106580
[davidson] empty states tolerance :     0.004515106580
[solve] average number of iterations:     5.076923
[solve] Lowest band energies
ik :  0,    -2.209606   -1.865771   -1.160657   -1.149418   -1.149418   -0.796392   -0.773237   -0.205494   -0.150992    0.205343
ik :  1,    -2.209258   -1.865539   -1.159701   -1.151937   -1.149992   -0.798734   -0.796785   -0.772659   -0.182910   -0.150097
ik :  2,    -2.208953   -1.865284   -1.159188   -1.153873   -1.150563   -0.801068   -0.772305   -0.797425   -0.156192   -0.149875
ik :  3,    -2.209250   -1.865539   -1.159631   -1.151937   -1.149992   -0.798681   -0.796914   -0.772634   -0.181474   -0.151922
ik :  4,    -2.208861   -1.865283   -1.160039   -1.153472   -1.151540   -0.800141   -0.798320   -0.772303   -0.156129   -0.150159
ik :  5,    -2.208970   -1.865282   -1.160037   -1.153472   -1.151539   -0.800138   -0.798343   -0.772311   -0.156989   -0.149335
ik :  6,    -2.209096   -1.865284   -1.159192   -1.153798   -1.150559   -0.800973   -0.797415   -0.772175   -0.155521   -0.150166
ik :  7,    -2.209654   -1.865789   -1.160381   -1.149420   -1.149417   -0.796389   -0.773268   -0.796450   -0.201694   -0.156532
ik :  8,    -2.209282   -1.865541   -1.159981   -1.151934   -1.149994   -0.798728   -0.772772   -0.796986   -0.179300   -0.154516
ik :  9,    -2.208962   -1.865279   -1.159344   -1.153996   -1.150563   -0.801052   -0.772191   -0.797232   -0.155890   -0.150060
ik : 10,    -2.209279   -1.865534   -1.159751   -1.151936   -1.149991   -0.798673   -0.796915   -0.772698   -0.177241   -0.156803
ik : 11,    -2.209011   -1.865286   -1.160039   -1.153470   -1.151536   -0.800137   -0.798314   -0.772238   -0.154837   -0.151352
ik : 12,    -2.209625   -1.865782   -1.160266   -1.149417   -1.149417   -0.796384   -0.773284   -0.796434   -0.196746   -0.163138

=== Warning at line 1417 of file /home/ubuntu/SIRIUS/src/density/density.cpp ===
wrong unsymmetrized density
  obtained value : 3.500000e+01
  target value : 3.500000e+01
  difference : 4.622898e-06


[find] 
[find] Charges and magnetic moments
[find] --------------------------------------------------------------------------------
[find] total charge          : 35.000005
[find] 
[find] Energy
[find] --------------------------------------------------------------------------------
[find] valence_eval_sum               :     -15.25609480
[find] <rho|V^{XC}>                   :     -30.52696604
[find] <rho|E^{XC}>                   :     -24.80558522
[find] <mag|B^{XC}>                   :       0.00000000
[find] <rho|V^{H}>                    :      90.88790933
[find] one-electron contribution      :     -75.42866184 (Ha),    -150.85732368 (Ry)
[find] hartree contribution           :      45.44395466
[find] xc contribution                :     -24.80558522
[find] ewald contribution             :    -107.69851775
[find] PAW contribution               :      -9.52245501
[find] smearing (-TS)                 :      -0.08844840
[find] SCF correction                 :       0.16763077
[find] Total energy                   :    -171.93208279 (Ha),    -343.86416557 (Ry)
[find] 
[find] band gap (eV)                  :       0.00000000
[find] Efermi                         :       0.46390074
[find] 
[find] iteration : 1, RMS : 1.529413129885e+00, energy difference : -6.999538579706e-01
[find] 
[find] +------------------------------+
[find] | SCF iteration   2 out of 100|
[find] +------------------------------+
[find] 
[solve] iterative solver tolerance: 4.2894e-03
[davidson] eigen-value tolerance  :     0.004289351251
[davidson] empty states tolerance :     0.004289351251
[davidson] eigen-value tolerance  :     0.004289351251
[davidson] empty states tolerance :     0.004289351251
[davidson] eigen-value tolerance  :     0.004289351251
[davidson] empty states tolerance :     0.004289351251
[davidson] eigen-value tolerance  :     0.004289351251
[davidson] empty states tolerance :     0.004289351251
[davidson] eigen-value tolerance  :     0.004289351251
[davidson] empty states tolerance :     0.004289351251
[davidson] eigen-value tolerance  :     0.004289351251
[davidson] empty states tolerance :     0.004289351251
[davidson] eigen-value tolerance  :     0.004289351251
[davidson] empty states tolerance :     0.004289351251
[davidson] eigen-value tolerance  :     0.004289351251
[davidson] empty states tolerance :     0.004289351251
[davidson] eigen-value tolerance  :     0.004289351251
[davidson] empty states tolerance :     0.004289351251
[davidson] eigen-value tolerance  :     0.004289351251
[davidson] empty states tolerance :     0.004289351251
[davidson] eigen-value tolerance  :     0.004289351251
[davidson] empty states tolerance :     0.004289351251
[davidson] eigen-value tolerance  :     0.004289351251
[davidson] empty states tolerance :     0.004289351251
[davidson] eigen-value tolerance  :     0.004289351251
[davidson] empty states tolerance :     0.004289351251
[solve] average number of iterations:     2.076923
[solve] Lowest band energies
ik :  0,    -2.171016   -1.660746   -1.119866   -1.119864   -1.118075   -0.611593   -0.611564   -0.602676   -0.343927   -0.296782
ik :  1,    -2.170689   -1.660432   -1.123177   -1.120579   -1.117403   -0.614916   -0.612275   -0.601765   -0.325855   -0.299115
ik :  2,    -2.170354   -1.660100   -1.126438   -1.121291   -1.116727   -0.618157   -0.612928   -0.600832   -0.306103   -0.301420
ik :  3,    -2.170690   -1.660437   -1.123177   -1.120579   -1.117403   -0.614908   -0.612280   -0.601774   -0.324855   -0.300156
ik :  4,    -2.170355   -1.660102   -1.125158   -1.122585   -1.116734   -0.616860   -0.614256   -0.600836   -0.306153   -0.301467
ik :  5,    -2.170355   -1.660101   -1.125157   -1.122585   -1.116735   -0.616859   -0.614257   -0.600812   -0.306423   -0.301237
ik :  6,    -2.170356   -1.660108   -1.126443   -1.121291   -1.116731   -0.618123   -0.612970   -0.600828   -0.306904   -0.300434
ik :  7,    -2.171020   -1.660754   -1.119865   -1.119865   -1.118072   -0.611591   -0.611563   -0.602776   -0.341462   -0.299760
ik :  8,    -2.170686   -1.660434   -1.123178   -1.120577   -1.117400   -0.614902   -0.612253   -0.601813   -0.324199   -0.300999
ik :  9,    -2.170354   -1.660101   -1.126440   -1.121290   -1.116729   -0.618145   -0.612929   -0.600830   -0.306526   -0.300938
ik : 10,    -2.170689   -1.660437   -1.123178   -1.120578   -1.117401   -0.614894   -0.612278   -0.601826   -0.322889   -0.302237
ik : 11,    -2.170355   -1.660106   -1.125159   -1.122585   -1.116734   -0.616852   -0.614255   -0.600838   -0.305835   -0.301709
ik : 12,    -2.171006   -1.660745   -1.119865   -1.119865   -1.118069   -0.611594   -0.611560   -0.602870   -0.338658   -0.303209

=== Warning at line 1417 of file /home/ubuntu/SIRIUS/src/density/density.cpp ===
wrong unsymmetrized density
  obtained value : 3.500000e+01
  target value : 3.500000e+01
  difference : 4.825546e-06


[find] 
[find] Charges and magnetic moments
[find] --------------------------------------------------------------------------------
[find] total charge          : 35.000005
[find] 
[find] Energy
[find] --------------------------------------------------------------------------------
[find] valence_eval_sum               :     -15.36523144
[find] <rho|V^{XC}>                   :     -30.53391558
[find] <rho|E^{XC}>                   :     -24.80988457
[find] <mag|B^{XC}>                   :       0.00000000
[find] <rho|V^{H}>                    :      89.95993948
[find] one-electron contribution      :     -74.61114575 (Ha),    -149.22229151 (Ry)
[find] hartree contribution           :      44.97996974
[find] xc contribution                :     -24.80988457
[find] ewald contribution             :    -107.69851775
[find] PAW contribution               :      -9.52002266
[find] smearing (-TS)                 :      -0.08822210
[find] SCF correction                 :      -0.37841622
[find] Total energy                   :    -172.12623931 (Ha),    -344.25247862 (Ry)
[find] 
[find] band gap (eV)                  :       0.00000000
[find] Efermi                         :       0.46466504
[find] 
[find] iteration : 2, RMS : 6.963646177799e-01, energy difference : -1.941565230265e-01
[find] 
[find] +------------------------------+
[find] | SCF iteration   3 out of 100|
[find] +------------------------------+
[find] 
[solve] iterative solver tolerance: 1.3855e-03
[davidson] eigen-value tolerance  :     0.001385496231
[davidson] empty states tolerance :     0.001385496231
[davidson] eigen-value tolerance  :     0.001385496231
[davidson] empty states tolerance :     0.001385496231
[davidson] eigen-value tolerance  :     0.001385496231
[davidson] empty states tolerance :     0.001385496231
[davidson] eigen-value tolerance  :     0.001385496231
[davidson] empty states tolerance :     0.001385496231
[davidson] eigen-value tolerance  :     0.001385496231
[davidson] empty states tolerance :     0.001385496231
[davidson] eigen-value tolerance  :     0.001385496231
[davidson] empty states tolerance :     0.001385496231
[davidson] eigen-value tolerance  :     0.001385496231
[davidson] empty states tolerance :     0.001385496231
[davidson] eigen-value tolerance  :     0.001385496231
[davidson] empty states tolerance :     0.001385496231
[davidson] eigen-value tolerance  :     0.001385496231
[davidson] empty states tolerance :     0.001385496231
[davidson] eigen-value tolerance  :     0.001385496231
[davidson] empty states tolerance :     0.001385496231
[davidson] eigen-value tolerance  :     0.001385496231
[davidson] empty states tolerance :     0.001385496231
[davidson] eigen-value tolerance  :     0.001385496231
[davidson] empty states tolerance :     0.001385496231
[davidson] eigen-value tolerance  :     0.001385496231
[davidson] empty states tolerance :     0.001385496231
[solve] average number of iterations:     1.692308
[solve] Lowest band energies
ik :  0,    -2.263431   -1.594881   -1.209644   -1.209643   -1.205430   -0.552380   -0.552379   -0.547901   -0.340135   -0.288267
ik :  1,    -2.263137   -1.594544   -1.212504   -1.210276   -1.204890   -0.556069   -0.553118   -0.546764   -0.321140   -0.291371
ik :  2,    -2.262837   -1.594190   -1.215328   -1.210907   -1.204349   -0.559634   -0.553861   -0.545626   -0.299458   -0.295329
ik :  3,    -2.263138   -1.594548   -1.212505   -1.210277   -1.204889   -0.556061   -0.553121   -0.546788   -0.320179   -0.292436
ik :  4,    -2.262835   -1.594192   -1.214227   -1.212018   -1.204354   -0.558191   -0.555297   -0.545635   -0.300288   -0.294590
ik :  5,    -2.262834   -1.594192   -1.214227   -1.212018   -1.204354   -0.558192   -0.555302   -0.545610   -0.300477   -0.294443
ik :  6,    -2.262837   -1.594195   -1.215328   -1.210907   -1.204351   -0.559598   -0.553866   -0.545612   -0.300584   -0.294091
ik :  7,    -2.263433   -1.594888   -1.209645   -1.209644   -1.205428   -0.552381   -0.552377   -0.548058   -0.337594   -0.291273
ik :  8,    -2.263134   -1.594546   -1.212505   -1.210276   -1.204889   -0.556050   -0.553124   -0.546857   -0.319407   -0.293152
ik :  9,    -2.262837   -1.594192   -1.215328   -1.210907   -1.204350   -0.559617   -0.553855   -0.545620   -0.300084   -0.294646
ik : 10,    -2.263138   -1.594551   -1.212504   -1.210276   -1.204890   -0.556041   -0.553112   -0.546872   -0.318307   -0.294365
ik : 11,    -2.262837   -1.594195   -1.214229   -1.212018   -1.204354   -0.558183   -0.555300   -0.545640   -0.300088   -0.294744
ik : 12,    -2.263425   -1.594881   -1.209645   -1.209645   -1.205427   -0.552380   -0.552376   -0.548215   -0.334706   -0.294638

=== Warning at line 1417 of file /home/ubuntu/SIRIUS/src/density/density.cpp ===
wrong unsymmetrized density
  obtained value : 3.500001e+01
  target value : 3.500000e+01
  difference : 6.302302e-06


[find] 
[find] Charges and magnetic moments
[find] --------------------------------------------------------------------------------
[find] total charge          : 35.000005
[find] 
[find] Energy
[find] --------------------------------------------------------------------------------
[find] valence_eval_sum               :     -15.77981646
[find] <rho|V^{XC}>                   :     -30.66805432
[find] <rho|E^{XC}>                   :     -24.91542292
[find] <mag|B^{XC}>                   :       0.00000000
[find] <rho|V^{H}>                    :      91.02428182
[find] one-electron contribution      :     -75.96171109 (Ha),    -151.92342219 (Ry)
[find] hartree contribution           :      45.51214091
[find] xc contribution                :     -24.91542292
[find] ewald contribution             :    -107.69851775
[find] PAW contribution               :      -9.51773463
[find] smearing (-TS)                 :      -0.08593685
[find] SCF correction                 :       0.51316359
[find] Total energy                   :    -172.15401875 (Ha),    -344.30803750 (Ry)
[find] 
[find] band gap (eV)                  :       0.00000000
[find] Efermi                         :       0.39836165
[find] 
[find] iteration : 3, RMS : 1.785354245533e-01, energy difference : -2.777943937926e-02
[find] 
[find] +------------------------------+
[find] | SCF iteration   4 out of 100|
[find] +------------------------------+
[find] 
[solve] iterative solver tolerance: 9.1071e-05
[davidson] eigen-value tolerance  :     0.000091071137
[davidson] empty states tolerance :     0.000091071137
[davidson] eigen-value tolerance  :     0.000091071137
[davidson] empty states tolerance :     0.000091071137
[davidson] eigen-value tolerance  :     0.000091071137
[davidson] empty states tolerance :     0.000091071137
[davidson] eigen-value tolerance  :     0.000091071137
[davidson] empty states tolerance :     0.000091071137
[davidson] eigen-value tolerance  :     0.000091071137
[davidson] empty states tolerance :     0.000091071137
[davidson] eigen-value tolerance  :     0.000091071137
[davidson] empty states tolerance :     0.000091071137
[davidson] eigen-value tolerance  :     0.000091071137
[davidson] empty states tolerance :     0.000091071137
[davidson] eigen-value tolerance  :     0.000091071137
[davidson] empty states tolerance :     0.000091071137
[davidson] eigen-value tolerance  :     0.000091071137
[davidson] empty states tolerance :     0.000091071137
[davidson] eigen-value tolerance  :     0.000091071137
[davidson] empty states tolerance :     0.000091071137
[davidson] eigen-value tolerance  :     0.000091071137
[davidson] empty states tolerance :     0.000091071137
[davidson] eigen-value tolerance  :     0.000091071137
[davidson] empty states tolerance :     0.000091071137
[davidson] eigen-value tolerance  :     0.000091071137
[davidson] empty states tolerance :     0.000091071137
[solve] average number of iterations:     3.692308
[solve] Lowest band energies
ik :  0,    -2.244650   -1.558844   -1.190637   -1.190636   -1.190052   -0.523182   -0.523181   -0.521455   -0.334989   -0.282963
ik :  1,    -2.244348   -1.558481   -1.193588   -1.191286   -1.189491   -0.527247   -0.523991   -0.520147   -0.315779   -0.286088
ik :  2,    -2.244046   -1.558103   -1.196502   -1.191935   -1.188931   -0.531148   -0.524794   -0.518816   -0.293988   -0.289983
ik :  3,    -2.244348   -1.558486   -1.193589   -1.191287   -1.189492   -0.527240   -0.523990   -0.520182   -0.314723   -0.287252
ik :  4,    -2.244046   -1.558104   -1.195364   -1.193084   -1.188935   -0.529555   -0.526372   -0.518830   -0.294810   -0.289253
ik :  5,    -2.244045   -1.558105   -1.195364   -1.193083   -1.188935   -0.529566   -0.526368   -0.518820   -0.294972   -0.289136
ik :  6,    -2.244046   -1.558108   -1.196503   -1.191935   -1.188932   -0.531102   -0.524784   -0.518815   -0.295387   -0.288474
ik :  7,    -2.244651   -1.558852   -1.190637   -1.190637   -1.190051   -0.523183   -0.523177   -0.521662   -0.332187   -0.286199
ik :  8,    -2.244349   -1.558484   -1.193589   -1.191286   -1.189491   -0.527223   -0.523981   -0.520263   -0.313941   -0.287950
ik :  9,    -2.244045   -1.558103   -1.196502   -1.191934   -1.188931   -0.531126   -0.524792   -0.518815   -0.294782   -0.289136
ik : 10,    -2.244349   -1.558490   -1.193590   -1.191286   -1.189491   -0.527216   -0.523990   -0.520301   -0.312718   -0.289285
ik : 11,    -2.244045   -1.558107   -1.195364   -1.193084   -1.188935   -0.529543   -0.526373   -0.518842   -0.294640   -0.289378
ik : 12,    -2.244652   -1.558845   -1.190636   -1.190636   -1.190047   -0.523182   -0.523178   -0.521870   -0.328955   -0.289865

=== Warning at line 1417 of file /home/ubuntu/SIRIUS/src/density/density.cpp ===
wrong unsymmetrized density
  obtained value : 3.500000e+01
  target value : 3.500000e+01
  difference : 4.843382e-06


[find] 
[find] Charges and magnetic moments
[find] --------------------------------------------------------------------------------
[find] total charge          : 35.000005
[find] 
[find] Energy
[find] --------------------------------------------------------------------------------
[find] valence_eval_sum               :     -15.27007809
[find] <rho|V^{XC}>                   :     -30.73591045
[find] <rho|E^{XC}>                   :     -24.96791116
[find] <mag|B^{XC}>                   :       0.00000000
[find] <rho|V^{H}>                    :      91.35757826
[find] one-electron contribution      :     -75.72341892 (Ha),    -151.44683784 (Ry)
[find] hartree contribution           :      45.67878913
[find] xc contribution                :     -24.96791116
[find] ewald contribution             :    -107.69851775
[find] PAW contribution               :      -9.51412230
[find] smearing (-TS)                 :      -0.08524549
[find] SCF correction                 :       0.15737856
[find] Total energy                   :    -172.15304793 (Ha),    -344.30609586 (Ry)
[find] 
[find] band gap (eV)                  :       0.00000000
[find] Efermi                         :       0.41197247
[find] 
[find] iteration : 4, RMS : 1.275992051169e-01, energy difference : 9.708184682040e-04
[find] 
[find] +------------------------------+
[find] | SCF iteration   5 out of 100|
[find] +------------------------------+
[find] 
[solve] iterative solver tolerance: 4.6519e-05
[davidson] eigen-value tolerance  :     0.000046518735
[davidson] empty states tolerance :     0.000046518735
[davidson] eigen-value tolerance  :     0.000046518735
[davidson] empty states tolerance :     0.000046518735
[davidson] eigen-value tolerance  :     0.000046518735
[davidson] empty states tolerance :     0.000046518735
[davidson] eigen-value tolerance  :     0.000046518735
[davidson] empty states tolerance :     0.000046518735
[davidson] eigen-value tolerance  :     0.000046518735
[davidson] empty states tolerance :     0.000046518735
[davidson] eigen-value tolerance  :     0.000046518735
[davidson] empty states tolerance :     0.000046518735
[davidson] eigen-value tolerance  :     0.000046518735
[davidson] empty states tolerance :     0.000046518735
[davidson] eigen-value tolerance  :     0.000046518735
[davidson] empty states tolerance :     0.000046518735
[davidson] eigen-value tolerance  :     0.000046518735
[davidson] empty states tolerance :     0.000046518735
[davidson] eigen-value tolerance  :     0.000046518735
[davidson] empty states tolerance :     0.000046518735
[davidson] eigen-value tolerance  :     0.000046518735
[davidson] empty states tolerance :     0.000046518735
[davidson] eigen-value tolerance  :     0.000046518735
[davidson] empty states tolerance :     0.000046518735
[davidson] eigen-value tolerance  :     0.000046518735
[davidson] empty states tolerance :     0.000046518735
[solve] average number of iterations:     2.615385
[solve] Lowest band energies
ik :  0,    -2.257476   -1.520092   -1.203544   -1.203543   -1.201399   -0.490973   -0.488714   -0.488714   -0.334000   -0.281047
ik :  1,    -2.257177   -1.519707   -1.206428   -1.204181   -1.200855   -0.493198   -0.489572   -0.489417   -0.314577   -0.284492
ik :  2,    -2.256881   -1.519306   -1.209277   -1.204818   -1.200309   -0.497441   -0.490428   -0.487827   -0.292492   -0.288830
ik :  3,    -2.257178   -1.519712   -1.206429   -1.204182   -1.200855   -0.493195   -0.489572   -0.489460   -0.313419   -0.285746
ik :  4,    -2.256881   -1.519308   -1.208167   -1.205939   -1.200313   -0.495680   -0.492174   -0.487850   -0.293509   -0.287898
ik :  5,    -2.256880   -1.519309   -1.208167   -1.205939   -1.200313   -0.495697   -0.492176   -0.487832   -0.293616   -0.287840
ik :  6,    -2.256880   -1.519311   -1.209279   -1.204818   -1.200311   -0.497382   -0.490424   -0.487827   -0.294265   -0.286948
ik :  7,    -2.257476   -1.520101   -1.203543   -1.203543   -1.201397   -0.491280   -0.488715   -0.488714   -0.330907   -0.284479
ik :  8,    -2.257177   -1.519709   -1.206429   -1.204181   -1.200854   -0.493158   -0.489588   -0.489572   -0.312668   -0.286375
ik :  9,    -2.256881   -1.519307   -1.209278   -1.204818   -1.200310   -0.497411   -0.490426   -0.487827   -0.293525   -0.287743
ik : 10,    -2.257177   -1.519715   -1.206429   -1.204181   -1.200854   -0.493155   -0.489631   -0.489572   -0.311321   -0.287817
ik : 11,    -2.256879   -1.519311   -1.208167   -1.205939   -1.200313   -0.495664   -0.492173   -0.487869   -0.293398   -0.287959
ik : 12,    -2.257476   -1.520093   -1.203544   -1.203543   -1.201394   -0.491584   -0.488715   -0.488715   -0.327309   -0.288412

=== Warning at line 1417 of file /home/ubuntu/SIRIUS/src/density/density.cpp ===
wrong unsymmetrized density
  obtained value : 3.500001e+01
  target value : 3.500000e+01
  difference : 5.472845e-06


[find] 
[find] Charges and magnetic moments
[find] --------------------------------------------------------------------------------
[find] total charge          : 35.000005
[find] 
[find] Energy
[find] --------------------------------------------------------------------------------
[find] valence_eval_sum               :     -15.11456791
[find] <rho|V^{XC}>                   :     -30.73745129
[find] <rho|E^{XC}>                   :     -24.96916460
[find] <mag|B^{XC}>                   :       0.00000000
[find] <rho|V^{H}>                    :      91.36267227
[find] one-electron contribution      :     -75.57114578 (Ha),    -151.14229157 (Ry)
[find] hartree contribution           :      45.68133613
[find] xc contribution                :     -24.96916460
[find] ewald contribution             :    -107.69851775
[find] PAW contribution               :      -9.51392660
[find] smearing (-TS)                 :      -0.08491760
[find] SCF correction                 :       0.00194595
[find] Total energy                   :    -172.15439024 (Ha),    -344.30878048 (Ry)
[find] 
[find] band gap (eV)                  :       0.00000000
[find] Efermi                         :       0.40276913
[find] 
[find] iteration : 5, RMS : 2.961718882920e-02, energy difference : -1.342308247786e-03
[find] 
[find] +------------------------------+
[find] | SCF iteration   6 out of 100|
[find] +------------------------------+
[find] 
[solve] iterative solver tolerance: 2.5062e-06
[davidson] eigen-value tolerance  :     0.000002506222
[davidson] empty states tolerance :     0.000002506222
[davidson] eigen-value tolerance  :     0.000002506222
[davidson] empty states tolerance :     0.000002506222
[davidson] eigen-value tolerance  :     0.000002506222
[davidson] empty states tolerance :     0.000002506222
[davidson] eigen-value tolerance  :     0.000002506222
[davidson] empty states tolerance :     0.000002506222
[davidson] eigen-value tolerance  :     0.000002506222
[davidson] empty states tolerance :     0.000002506222
[davidson] eigen-value tolerance  :     0.000002506222
[davidson] empty states tolerance :     0.000002506222
[davidson] eigen-value tolerance  :     0.000002506222
[davidson] empty states tolerance :     0.000002506222
[davidson] eigen-value tolerance  :     0.000002506222
[davidson] empty states tolerance :     0.000002506222
[davidson] eigen-value tolerance  :     0.000002506222
[davidson] empty states tolerance :     0.000002506222
[davidson] eigen-value tolerance  :     0.000002506222
[davidson] empty states tolerance :     0.000002506222
[davidson] eigen-value tolerance  :     0.000002506222
[davidson] empty states tolerance :     0.000002506222
[davidson] eigen-value tolerance  :     0.000002506222
[davidson] empty states tolerance :     0.000002506222
[davidson] eigen-value tolerance  :     0.000002506222
[davidson] empty states tolerance :     0.000002506222
[solve] average number of iterations:     6.384615
[solve] Lowest band energies
ik :  0,    -2.256978   -1.516218   -1.202979   -1.202978   -1.201433   -0.487449   -0.484491   -0.484490   -0.336462   -0.283406
ik :  1,    -2.256680   -1.515833   -1.205882   -1.203620   -1.200886   -0.489020   -0.485852   -0.485352   -0.317053   -0.286949
ik :  2,    -2.256382   -1.515433   -1.208749   -1.204258   -1.200337   -0.493295   -0.486210   -0.484221   -0.295006   -0.291391
ik :  3,    -2.256680   -1.515839   -1.205882   -1.203620   -1.200886   -0.489021   -0.485896   -0.485351   -0.315885   -0.288206
ik :  4,    -2.256382   -1.515434   -1.207630   -1.205389   -1.200340   -0.491512   -0.487975   -0.484245   -0.296045   -0.290433
ik :  5,    -2.256382   -1.515435   -1.207631   -1.205388   -1.200341   -0.491530   -0.487976   -0.484227   -0.296138   -0.290388
ik :  6,    -2.256381   -1.515439   -1.208751   -1.204259   -1.200338   -0.493231   -0.486207   -0.484221   -0.296839   -0.289454
ik :  7,    -2.256979   -1.516227   -1.202978   -1.202978   -1.201432   -0.487779   -0.484491   -0.484491   -0.333338   -0.286835
ik :  8,    -2.256680   -1.515835   -1.205882   -1.203619   -1.200885   -0.488975   -0.486037   -0.485352   -0.315152   -0.288808
ik :  9,    -2.256382   -1.515434   -1.208750   -1.204259   -1.200338   -0.493263   -0.486208   -0.484221   -0.296078   -0.290267
ik : 10,    -2.256681   -1.515842   -1.205882   -1.203619   -1.200884   -0.488976   -0.486079   -0.485351   -0.313796   -0.290254
ik : 11,    -2.256382   -1.515437   -1.207632   -1.205388   -1.200340   -0.491495   -0.487974   -0.484265   -0.295949   -0.290480
ik : 12,    -2.256979   -1.516221   -1.202978   -1.202978   -1.201429   -0.488106   -0.484492   -0.484492   -0.329706   -0.290766

=== Warning at line 1417 of file /home/ubuntu/SIRIUS/src/density/density.cpp ===
wrong unsymmetrized density
  obtained value : 3.500001e+01
  target value : 3.500000e+01
  difference : 5.971121e-06


[find] 
[find] Charges and magnetic moments
[find] --------------------------------------------------------------------------------
[find] total charge          : 35.000006
[find] 
[find] Energy
[find] --------------------------------------------------------------------------------
[find] valence_eval_sum               :     -15.11273538
[find] <rho|V^{XC}>                   :     -30.73809429
[find] <rho|E^{XC}>                   :     -24.96960972
[find] <mag|B^{XC}>                   :       0.00000000
[find] <rho|V^{H}>                    :      91.37293575
[find] one-electron contribution      :     -75.57897938 (Ha),    -151.15795877 (Ry)
[find] hartree contribution           :      45.68646788
[find] xc contribution                :     -24.96960972
[find] ewald contribution             :    -107.69851775
[find] PAW contribution               :      -9.51383346
[find] smearing (-TS)                 :      -0.08493402
[find] SCF correction                 :       0.00488895
[find] Total energy                   :    -172.15451750 (Ha),    -344.30903501 (Ry)
[find] 
[find] band gap (eV)                  :       0.00000000
[find] Efermi                         :       0.40258656
[find] 
[find] iteration : 6, RMS : 4.843268589544e-03, energy difference : -1.272650115141e-04
[find] 
[find] +------------------------------+
[find] | SCF iteration   7 out of 100|
[find] +------------------------------+
[find] 
[solve] iterative solver tolerance: 1.0000e-07
[davidson] eigen-value tolerance  :     0.000000100000
[davidson] empty states tolerance :     0.000000100000
[davidson] eigen-value tolerance  :     0.000000100000
[davidson] empty states tolerance :     0.000000100000
[davidson] eigen-value tolerance  :     0.000000100000
[davidson] empty states tolerance :     0.000000100000
[davidson] eigen-value tolerance  :     0.000000100000
[davidson] empty states tolerance :     0.000000100000
[davidson] eigen-value tolerance  :     0.000000100000
[davidson] empty states tolerance :     0.000000100000
[davidson] eigen-value tolerance  :     0.000000100000
[davidson] empty states tolerance :     0.000000100000
[davidson] eigen-value tolerance  :     0.000000100000
[davidson] empty states tolerance :     0.000000100000
[davidson] eigen-value tolerance  :     0.000000100000
[davidson] empty states tolerance :     0.000000100000
[davidson] eigen-value tolerance  :     0.000000100000
[davidson] empty states tolerance :     0.000000100000
[davidson] eigen-value tolerance  :     0.000000100000
[davidson] empty states tolerance :     0.000000100000
[davidson] eigen-value tolerance  :     0.000000100000
[davidson] empty states tolerance :     0.000000100000
[davidson] eigen-value tolerance  :     0.000000100000
[davidson] empty states tolerance :     0.000000100000
[davidson] eigen-value tolerance  :     0.000000100000
[davidson] empty states tolerance :     0.000000100000
[solve] average number of iterations:    19.000000
[solve] Lowest band energies
ik :  0,    -2.256782   -1.515307   -1.202838   -1.202837   -1.201131   -0.486619   -0.483453   -0.483453   -0.336799   -0.283793
ik :  1,    -2.256485   -1.514920   -1.205740   -1.203479   -1.200584   -0.487997   -0.485013   -0.484315   -0.317405   -0.287343
ik :  2,    -2.256188   -1.514518   -1.208608   -1.204117   -1.200032   -0.492281   -0.485176   -0.483371   -0.295387   -0.291792
ik :  3,    -2.256484   -1.514927   -1.205741   -1.203477   -1.200583   -0.487998   -0.485055   -0.484314   -0.316234   -0.288603
ik :  4,    -2.256185   -1.514520   -1.207489   -1.205246   -1.200037   -0.490493   -0.486946   -0.483396   -0.296430   -0.290827
ik :  5,    -2.256185   -1.514520   -1.207489   -1.205244   -1.200035   -0.490511   -0.486947   -0.483376   -0.296521   -0.290787
ik :  6,    -2.256185   -1.514525   -1.208610   -1.204117   -1.200036   -0.492218   -0.485172   -0.483372   -0.297237   -0.289837
ik :  7,    -2.256785   -1.515315   -1.202836   -1.202836   -1.201128   -0.486956   -0.483452   -0.483452   -0.333664   -0.287227
ik :  8,    -2.256484   -1.514923   -1.205741   -1.203479   -1.200580   -0.487951   -0.485200   -0.484315   -0.315504   -0.289201
ik :  9,    -2.256186   -1.514518   -1.208608   -1.204116   -1.200032   -0.492249   -0.485173   -0.483372   -0.296470   -0.290655
ik : 10,    -2.256485   -1.514928   -1.205741   -1.203478   -1.200580   -0.487953   -0.485243   -0.484315   -0.314141   -0.290650
ik : 11,    -2.256186   -1.514524   -1.207491   -1.205245   -1.200039   -0.490474   -0.486946   -0.483415   -0.296336   -0.290873
ik : 12,    -2.256783   -1.515306   -1.202837   -1.202837   -1.201124   -0.487289   -0.483455   -0.483453   -0.330015   -0.291166

=== Warning at line 1417 of file /home/ubuntu/SIRIUS/src/density/density.cpp ===
wrong unsymmetrized density
  obtained value : 3.500002e+01
  target value : 3.500000e+01
  difference : 1.808547e-05


[find] 
[find] Charges and magnetic moments
[find] --------------------------------------------------------------------------------
[find] total charge          : 35.000014
[find] 
[find] Energy
[find] --------------------------------------------------------------------------------
[find] valence_eval_sum               :     -15.10783445
[find] <rho|V^{XC}>                   :     -30.73957313
[find] <rho|E^{XC}>                   :     -24.97078848
[find] <mag|B^{XC}>                   :       0.00000000
[find] <rho|V^{H}>                    :      91.38411462
[find] one-electron contribution      :     -75.58396103 (Ha),    -151.16792205 (Ry)
[find] hartree contribution           :      45.69205731
[find] xc contribution                :     -24.97078848
[find] ewald contribution             :    -107.69851775
[find] PAW contribution               :      -9.51382777
[find] smearing (-TS)                 :      -0.08495776
[find] SCF correction                 :       0.00547115
[find] Total energy                   :    -172.15452432 (Ha),    -344.30904865 (Ry)
[find] 
[find] band gap (eV)                  :       0.00000000
[find] Efermi                         :       0.40270586
[find] 
[find] iteration : 7, RMS : 5.749313192250e-03, energy difference : -6.820471952551e-06
[find] 
[find] +------------------------------+
[find] | SCF iteration   8 out of 100|
[find] +------------------------------+
[find] 
[solve] iterative solver tolerance: 1.0000e-07
[davidson] eigen-value tolerance  :     0.000000100000
[davidson] empty states tolerance :     0.000000100000
[davidson] eigen-value tolerance  :     0.000000100000
[davidson] empty states tolerance :     0.000000100000
[davidson] eigen-value tolerance  :     0.000000100000
[davidson] empty states tolerance :     0.000000100000
[davidson] eigen-value tolerance  :     0.000000100000
[davidson] empty states tolerance :     0.000000100000
[davidson] eigen-value tolerance  :     0.000000100000
[davidson] empty states tolerance :     0.000000100000
[davidson] eigen-value tolerance  :     0.000000100000
[davidson] empty states tolerance :     0.000000100000
[davidson] eigen-value tolerance  :     0.000000100000
[davidson] empty states tolerance :     0.000000100000
[davidson] eigen-value tolerance  :     0.000000100000
[davidson] empty states tolerance :     0.000000100000
[davidson] eigen-value tolerance  :     0.000000100000
[davidson] empty states tolerance :     0.000000100000
[davidson] eigen-value tolerance  :     0.000000100000
[davidson] empty states tolerance :     0.000000100000
[davidson] eigen-value tolerance  :     0.000000100000
[davidson] empty states tolerance :     0.000000100000
[davidson] eigen-value tolerance  :     0.000000100000
[davidson] empty states tolerance :     0.000000100000
[davidson] eigen-value tolerance  :     0.000000100000
[davidson] empty states tolerance :     0.000000100000
[solve] average number of iterations:    19.000000
[solve] Lowest band energies
ik :  0,    -2.256633   -1.515715   -1.202693   -1.202691   -1.200955   -0.486947   -0.483804   -0.483802   -0.336342   -0.283331
ik :  1,    -2.256335   -1.515331   -1.205596   -1.203334   -1.200406   -0.488342   -0.485346   -0.484667   -0.316941   -0.286870
ik :  2,    -2.256037   -1.514929   -1.208462   -1.203973   -1.199856   -0.492622   -0.485525   -0.483709   -0.294909   -0.291307
ik :  3,    -2.256335   -1.515336   -1.205597   -1.203335   -1.200403   -0.488343   -0.485388   -0.484665   -0.315771   -0.288129
ik :  4,    -2.256035   -1.514931   -1.207344   -1.205104   -1.199859   -0.490835   -0.487293   -0.483734   -0.295948   -0.290345
ik :  5,    -2.256035   -1.514932   -1.207344   -1.205103   -1.199860   -0.490855   -0.487294   -0.483717   -0.296039   -0.290303
ik :  6,    -2.256035   -1.514935   -1.208465   -1.203977   -1.199858   -0.492559   -0.485523   -0.483709   -0.296753   -0.289356
ik :  7,    -2.256634   -1.515724   -1.202694   -1.202693   -1.200950   -0.487280   -0.483804   -0.483803   -0.333209   -0.286765
ik :  8,    -2.256334   -1.515332   -1.205597   -1.203336   -1.200405   -0.488297   -0.485530   -0.484667   -0.315039   -0.288731
ik :  9,    -2.256036   -1.514930   -1.208462   -1.203974   -1.199858   -0.492591   -0.485524   -0.483709   -0.295986   -0.290173
ik : 10,    -2.256335   -1.515338   -1.205597   -1.203336   -1.200404   -0.488299   -0.485571   -0.484665   -0.313678   -0.290179
ik : 11,    -2.256038   -1.514935   -1.207347   -1.205102   -1.199861   -0.490819   -0.487294   -0.483753   -0.295854   -0.290392
ik : 12,    -2.256634   -1.515718   -1.202693   -1.202691   -1.200948   -0.487608   -0.483806   -0.483805   -0.329568   -0.290704

=== Warning at line 1417 of file /home/ubuntu/SIRIUS/src/density/density.cpp ===
wrong unsymmetrized density
  obtained value : 3.500001e+01
  target value : 3.500000e+01
  difference : 7.511129e-06


[find] 
[find] Charges and magnetic moments
[find] --------------------------------------------------------------------------------
[find] total charge          : 35.000011
[find] 
[find] Energy
[find] --------------------------------------------------------------------------------
[find] valence_eval_sum               :     -15.10238318
[find] <rho|V^{XC}>                   :     -30.74032405
[find] <rho|E^{XC}>                   :     -24.97136651
[find] <mag|B^{XC}>                   :       0.00000000
[find] <rho|V^{H}>                    :      91.38863419
[find] one-electron contribution      :     -75.58234868 (Ha),    -151.16469735 (Ry)
[find] hartree contribution           :      45.69431709
[find] xc contribution                :     -24.97136651
[find] ewald contribution             :    -107.69851775
[find] PAW contribution               :      -9.51379007
[find] smearing (-TS)                 :      -0.08494087
[find] SCF correction                 :       0.00211976
[find] Total energy                   :    -172.15452702 (Ha),    -344.30905405 (Ry)
[find] 
[find] band gap (eV)                  :       0.00000000
[find] Efermi                         :       0.40289508
[find] 
[find] iteration : 8, RMS : 1.499772870166e-03, energy difference : -2.701075004552e-06
[find] 
[find] +------------------------------+
[find] | SCF iteration   9 out of 100|
[find] +------------------------------+
[find] 
[solve] iterative solver tolerance: 1.0000e-07
[davidson] eigen-value tolerance  :     0.000000100000
[davidson] empty states tolerance :     0.000000100000
[davidson] eigen-value tolerance  :     0.000000100000
[davidson] empty states tolerance :     0.000000100000
[davidson] eigen-value tolerance  :     0.000000100000
[davidson] empty states tolerance :     0.000000100000
[davidson] eigen-value tolerance  :     0.000000100000
[davidson] empty states tolerance :     0.000000100000
[davidson] eigen-value tolerance  :     0.000000100000
[davidson] empty states tolerance :     0.000000100000
[davidson] eigen-value tolerance  :     0.000000100000
[davidson] empty states tolerance :     0.000000100000
[davidson] eigen-value tolerance  :     0.000000100000
[davidson] empty states tolerance :     0.000000100000
[davidson] eigen-value tolerance  :     0.000000100000
[davidson] empty states tolerance :     0.000000100000
[davidson] eigen-value tolerance  :     0.000000100000
[davidson] empty states tolerance :     0.000000100000
[davidson] eigen-value tolerance  :     0.000000100000
[davidson] empty states tolerance :     0.000000100000
[davidson] eigen-value tolerance  :     0.000000100000
[davidson] empty states tolerance :     0.000000100000
[davidson] eigen-value tolerance  :     0.000000100000
[davidson] empty states tolerance :     0.000000100000
[davidson] eigen-value tolerance  :     0.000000100000
[davidson] empty states tolerance :     0.000000100000
[solve] average number of iterations:    19.000000
[solve] Lowest band energies
ik :  0,    -2.256718   -1.515445   -1.202771   -1.202770   -1.201040   -0.486737   -0.483570   -0.483570   -0.336265   -0.283251
ik :  1,    -2.256421   -1.515059   -1.205672   -1.203413   -1.200493   -0.488111   -0.485135   -0.484433   -0.316861   -0.286789
ik :  2,    -2.256120   -1.514658   -1.208537   -1.204051   -1.199943   -0.492395   -0.485293   -0.483497   -0.294827   -0.291226
ik :  3,    -2.256420   -1.515064   -1.205673   -1.203410   -1.200492   -0.488115   -0.485175   -0.484432   -0.315691   -0.288050
ik :  4,    -2.256120   -1.514660   -1.207421   -1.205181   -1.199946   -0.490606   -0.487063   -0.483522   -0.295868   -0.290267
ik :  5,    -2.256121   -1.514660   -1.207421   -1.205178   -1.199945   -0.490625   -0.487065   -0.483500   -0.295959   -0.290223
ik :  6,    -2.256121   -1.514662   -1.208540   -1.204050   -1.199945   -0.492330   -0.485290   -0.483495   -0.296673   -0.289276
ik :  7,    -2.256719   -1.515454   -1.202772   -1.202770   -1.201039   -0.487072   -0.483571   -0.483570   -0.333131   -0.286688
ik :  8,    -2.256421   -1.515062   -1.205674   -1.203411   -1.200490   -0.488065   -0.485320   -0.484433   -0.314959   -0.288651
ik :  9,    -2.256121   -1.514659   -1.208539   -1.204051   -1.199942   -0.492362   -0.485290   -0.483496   -0.295907   -0.290093
ik : 10,    -2.256418   -1.515067   -1.205674   -1.203413   -1.200491   -0.488069   -0.485360   -0.484432   -0.313597   -0.290102
ik : 11,    -2.256121   -1.514663   -1.207421   -1.205179   -1.199946   -0.490590   -0.487061   -0.483539   -0.295775   -0.290312
ik : 12,    -2.256717   -1.515447   -1.202770   -1.202771   -1.201036   -0.487399   -0.483571   -0.483570   -0.329487   -0.290629

=== Warning at line 1417 of file /home/ubuntu/SIRIUS/src/density/density.cpp ===
wrong unsymmetrized density
  obtained value : 3.500001e+01
  target value : 3.500000e+01
  difference : 6.318138e-06


[find] 
[find] Charges and magnetic moments
[find] --------------------------------------------------------------------------------
[find] total charge          : 35.000007
[find] 
[find] Energy
[find] --------------------------------------------------------------------------------
[find] valence_eval_sum               :     -15.10027316
[find] <rho|V^{XC}>                   :     -30.74032116
[find] <rho|E^{XC}>                   :     -24.97136157
[find] <mag|B^{XC}>                   :       0.00000000
[find] <rho|V^{H}>                    :      91.38849362
[find] one-electron contribution      :     -75.58009208 (Ha),    -151.16018415 (Ry)
[find] hartree contribution           :      45.69424681
[find] xc contribution                :     -24.97136157
[find] ewald contribution             :    -107.69851775
[find] PAW contribution               :      -9.51378516
[find] smearing (-TS)                 :      -0.08493552
[find] SCF correction                 :      -0.00008615
[find] Total energy                   :    -172.15453142 (Ha),    -344.30906285 (Ry)
[find] 
[find] band gap (eV)                  :       0.00000000
[find] Efermi                         :       0.40284910
[find] 
[find] iteration : 9, RMS : 1.389709842158e-04, energy difference : -4.398485344836e-06
[find] 
[find] +------------------------------+
[find] | SCF iteration  10 out of 100|
[find] +------------------------------+
[find] 
[solve] iterative solver tolerance: 1.0000e-07
[davidson] eigen-value tolerance  :     0.000000100000
[davidson] empty states tolerance :     0.000000100000
[davidson] eigen-value tolerance  :     0.000000100000
[davidson] empty states tolerance :     0.000000100000
[davidson] eigen-value tolerance  :     0.000000100000
[davidson] empty states tolerance :     0.000000100000
[davidson] eigen-value tolerance  :     0.000000100000
[davidson] empty states tolerance :     0.000000100000
[davidson] eigen-value tolerance  :     0.000000100000
[davidson] empty states tolerance :     0.000000100000
[davidson] eigen-value tolerance  :     0.000000100000
[davidson] empty states tolerance :     0.000000100000
[davidson] eigen-value tolerance  :     0.000000100000
[davidson] empty states tolerance :     0.000000100000
[davidson] eigen-value tolerance  :     0.000000100000
[davidson] empty states tolerance :     0.000000100000
[davidson] eigen-value tolerance  :     0.000000100000
[davidson] empty states tolerance :     0.000000100000
[davidson] eigen-value tolerance  :     0.000000100000
[davidson] empty states tolerance :     0.000000100000
[davidson] eigen-value tolerance  :     0.000000100000
[davidson] empty states tolerance :     0.000000100000
[davidson] eigen-value tolerance  :     0.000000100000
[davidson] empty states tolerance :     0.000000100000
[davidson] eigen-value tolerance  :     0.000000100000
[davidson] empty states tolerance :     0.000000100000
[solve] average number of iterations:    19.000000
[solve] Lowest band energies
ik :  0,    -2.256727   -1.515394   -1.202780   -1.202778   -1.201044   -0.486699   -0.483532   -0.483531   -0.336288   -0.283274
ik :  1,    -2.256427   -1.515009   -1.205681   -1.203421   -1.200497   -0.488073   -0.485095   -0.484396   -0.316886   -0.286813
ik :  2,    -2.256130   -1.514607   -1.208548   -1.204058   -1.199947   -0.492359   -0.485255   -0.483457   -0.294851   -0.291251
ik :  3,    -2.256427   -1.515014   -1.205682   -1.203421   -1.200495   -0.488077   -0.485137   -0.484394   -0.315714   -0.288075
ik :  4,    -2.256128   -1.514609   -1.207431   -1.205190   -1.199950   -0.490570   -0.487025   -0.483481   -0.295892   -0.290292
ik :  5,    -2.256129   -1.514610   -1.207429   -1.205189   -1.199951   -0.490587   -0.487026   -0.483462   -0.295984   -0.290247
ik :  6,    -2.256128   -1.514613   -1.208548   -1.204060   -1.199947   -0.492293   -0.485250   -0.483456   -0.296698   -0.289300
ik :  7,    -2.256727   -1.515403   -1.202780   -1.202780   -1.201041   -0.487033   -0.483533   -0.483533   -0.333154   -0.286709
ik :  8,    -2.256426   -1.515010   -1.205683   -1.203423   -1.200494   -0.488029   -0.485281   -0.484396   -0.314981   -0.288674
ik :  9,    -2.256128   -1.514609   -1.208547   -1.204061   -1.199948   -0.492326   -0.485253   -0.483457   -0.295932   -0.290120
ik : 10,    -2.256428   -1.515017   -1.205682   -1.203421   -1.200495   -0.488031   -0.485321   -0.484393   -0.313620   -0.290125
ik : 11,    -2.256129   -1.514612   -1.207431   -1.205187   -1.199948   -0.490552   -0.487024   -0.483500   -0.295799   -0.290336
ik : 12,    -2.256725   -1.515396   -1.202782   -1.202781   -1.201038   -0.487362   -0.483534   -0.483533   -0.329510   -0.290651

=== Warning at line 1417 of file /home/ubuntu/SIRIUS/src/density/density.cpp ===
wrong unsymmetrized density
  obtained value : 3.500001e+01
  target value : 3.500000e+01
  difference : 1.035136e-05


[find] 
[find] Charges and magnetic moments
[find] --------------------------------------------------------------------------------
[find] total charge          : 35.000009
[find] 
[find] Energy
[find] --------------------------------------------------------------------------------
[find] valence_eval_sum               :     -15.10035436
[...]
 sirius::Density::add_k_point_contribution_rg                     1690       5.82 s        1.65     100.00       3.41 ms       2.85 ms      13.39 ms
 sirius::Potential::xc_rg_nonmagnetic|libxc                        278       5.79 s        1.64     100.00      18.51 ms      10.30 ms      33.95 ms
 init_run                                                            1       5.74 s        1.62     100.00       5.74 s        5.74 s        5.74 s 
 sirius::project_out_subspace                                    18945       5.72 s        1.62     100.00      92.46 us      26.80 us       7.75 ms
 sirius::Stress|us                                                   9       5.42 s        1.53     100.00     589.75 ms     556.73 ms     666.17 ms
 sddk::orthogonalize                                             39580       5.07 s        1.43     100.00     123.84 us       7.99 us       5.64 ms
 Eigensolver_lapack|cheevx                                       20635       5.06 s        1.43     100.00     239.25 us      15.23 us       7.04 ms
 sddk::wf_inner                                                  79628       4.97 s        1.41     100.00      40.48 us       1.92 us       4.91 ms
 sddk::wf_inner|pw                                               79628       4.76 s        1.35     100.00      37.85 us       1.24 us       4.91 ms
 sirius::divergence                                                278       4.65 s        1.31     100.00      16.58 ms      15.55 ms      19.84 ms
 sirius::Potential::generate_D_operator_matrix                     139       4.62 s        1.31     100.00      32.96 ms      30.15 ms      50.71 ms
 sirius::davidson|update_phi                                     15361       4.41 s        1.25     100.00     192.01 us       5.11 us      10.59 ms
 sirius::Potential::poisson                                        139       4.20 s        1.19     100.00      30.31 ms      26.81 ms      36.19 ms
 sirius::DFT_ground_state::update                                    9       4.09 s        1.16     100.00     455.25 ms     409.74 ms     479.92 ms
 forces                                                              9       3.98 s        1.13     100.00     437.69 ms     421.68 ms     477.83 ms
 sirius::Augmentation_operator_gvec_deriv::generate_pw_coeffs       54       3.60 s        1.02     100.00      58.97 ms       8.53 ms     143.93 ms
 hinit0                                                              1       3.35 s        0.95     100.00       3.35 s        3.35 s        3.35 s 
 sirius::Beta_projectors_base::inner                             24197       3.27 s        0.92     100.00      46.64 us      21.39 us       8.34 ms
 sddk::orthogonalize|transform                                   39580       3.13 s        0.89     100.00      73.67 us       5.10 us       5.58 ms
 sirius::Simulation_context::update                                 10       3.08 s        0.87     100.00     293.36 ms     275.63 ms     452.55 ms
 sirius::Density::mix                                              130       2.87 s        0.81     100.00      23.86 ms       6.68 ms      39.75 ms
 sirius::K_point_set::find_band_occupancies                        130       2.35 s        0.66     100.00       6.10 ms       3.96 ms     122.24 ms
 sirius::Band::initialize_subspace                                  18       2.24 s        0.63     100.00     125.36 ms     106.92 ms     166.42 ms
 sirius::Band::initialize_subspace|kp                              234       2.23 s        0.63     100.00       9.44 ms       7.98 ms      45.98 ms
 sirius::symmetrize|fpw|local                                      269       2.20 s        0.62     100.00       8.05 ms       6.12 ms      14.15 ms
 sirius::Density::generate_rho_aug|sum                             260       2.09 s        0.59     100.00       8.13 ms       2.85 ms      15.78 ms
 sddk::Gvec_shells::remap_forward                                  269       1.98 s        0.56     100.00       7.24 ms       6.87 ms       9.70 ms
 sddk::Gvec_shells::remap_backward                                 269       1.91 s        0.54     100.00       7.05 ms       6.52 ms       9.84 ms
 sirius::Density::generate_rho_aug|gemm                            260       1.88 s        0.53     100.00       7.90 ms       2.01 ms      16.34 ms
 sirius::Stress|vloc                                                 9       1.85 s        0.52     100.00     209.45 ms     168.38 ms     225.40 ms
 init_vloc                                                           1       1.55 s        0.44     100.00       1.55 s        1.55 s        1.55 s 
 sirius::Augmentation_operator::generate_pw_coeffs                  20       1.51 s        0.43     100.00      68.69 ms      10.66 ms     160.58 ms
 sirius::Force::calc_forces_us                                       9       1.48 s        0.42     100.00     162.02 ms     154.51 ms     183.35 ms
 sirius::Periodic_function::integrate                              148       1.47 s        0.42     100.00      10.03 ms       9.18 ms      11.02 ms
 init_us_1                                                           1       1.34 s        0.38     100.00       1.34 s        1.34 s        1.34 s 
 sirius::Simulation_context::make_periodic_function                 65       1.18 s        0.33     100.00      18.30 ms      14.28 ms      19.79 ms
 qe|update                                                           8       1.14 s        0.32     100.00     138.16 ms     132.49 ms     172.89 ms
 sirius::gradient                                                  148       1.09 s        0.31     100.00       5.72 ms       5.50 ms      20.21 ms
 sirius::Force::calc_forces_ewald                                    9       1.03 s        0.29     100.00     113.53 ms     101.93 ms     129.04 ms
 sirius::Density::update                                            19     967.35 ms       0.27     100.00      51.01 ms      40.70 ms      59.06 ms
 sirius::Density::generate_pseudo_core_charge_density               19     948.56 ms       0.27     100.00      50.15 ms      39.16 ms      58.54 ms
 potinit                                                             1     863.61 ms       0.24     100.00     863.61 ms     863.61 ms     863.61 ms
 sirius::Hamiltonian_k                                            1924     844.48 ms       0.24     100.00      16.90 us      10.70 us       4.13 ms
 sirius::Density::initial_density                                    9     838.34 ms       0.24     100.00      92.78 ms      90.58 ms      96.28 ms
 sirius::Non_local_functor::add_k_point                            234     835.17 ms       0.24     100.00       3.31 ms       1.17 ms       7.80 ms
 sirius::Local_operator::prepare_k                                1924     833.00 ms       0.24     100.00      11.41 us       6.84 us       4.12 ms
 sirius::Stress|us|gemm                                            162     825.09 ms       0.23     100.00       5.50 ms       3.35 ms       7.14 ms
 sirius::Stress|kin                                                  9     793.11 ms       0.22     100.00      88.59 ms      82.82 ms      92.11 ms
 sirius::Potential::update                                          10     773.01 ms       0.22     100.00      79.54 ms      55.88 ms      81.04 ms
 sirius::Stress|nonloc                                               9     761.92 ms       0.22     100.00      91.64 ms      67.31 ms     102.25 ms
 sirius::Potential::generate_local_potential                        10     757.75 ms       0.21     100.00      78.02 ms      54.34 ms      79.50 ms
 setup_sirius                                                        1     683.92 ms       0.19     100.00     683.92 ms     683.92 ms     683.92 ms
 sirius::dot                                                       139     591.19 ms       0.17     100.00       3.42 ms       3.12 ms      10.35 ms
 sirius::Force::calc_forces_vloc                                     9     571.99 ms       0.16     100.00      62.95 ms      60.67 ms      71.16 ms
 sirius::Density                                                    10     542.63 ms       0.15     100.00      53.05 ms      50.57 ms      61.12 ms
 newd                                                                1     541.20 ms       0.15     100.00     541.20 ms     541.20 ms     541.20 ms
 sirius::Augmentation_operator_gvec_deriv                            9     500.96 ms       0.14     100.00      54.70 ms      53.12 ms      62.51 ms
 sirius::Simulation_context::initialize                              1     460.50 ms       0.13     100.00     460.50 ms     460.50 ms     460.50 ms
 sirius::Density::mixer_output                                     130     425.81 ms       0.12     100.00       3.23 ms       2.43 ms       4.93 ms
 sddk::Gvec_shells                                                  10     381.29 ms       0.11     100.00      37.79 ms      36.85 ms      40.93 ms
 sddk::Gvec::find_gvec_shells                                       20     367.03 ms       0.10     100.00      18.12 ms       2.58 ms      34.90 ms
 sirius::Stress|us|phase_fac                                        18     335.77 ms       0.10     100.00      18.33 ms      17.01 ms      20.64 ms
 sirius::Force::calc_forces_core                                     9     332.63 ms       0.09     100.00      36.18 ms      32.79 ms      42.13 ms
 sddk::orthogonalize|tmtrx                                       39580     319.50 ms       0.09     100.00       7.13 us     349.00 ns     506.12 us
 v_of_rho                                                            1     305.25 ms       0.09     100.00     305.25 ms     305.25 ms     305.25 ms
 sirius::Force::calc_forces_scf_corr                                 9     302.78 ms       0.09     100.00      33.29 ms      31.19 ms      35.98 ms
 v_xc                                                                1     292.60 ms       0.08     100.00     292.60 ms     292.60 ms     292.60 ms
 sirius::Force::calc_forces_nonloc                                   9     259.27 ms       0.07     100.00      25.43 ms      23.34 ms      36.40 ms
 sirius::Density::add_k_point_contribution_dm                     1690     232.32 ms       0.07     100.00     101.24 us      78.12 us       8.38 ms
 sirius::Periodic_function::add                                    278     231.65 ms       0.07     100.00     797.21 us     652.76 us       2.61 ms
 sirius::K_point_set::sync_band                                    260     229.79 ms       0.07     100.00      36.31 us      15.64 us       7.10 ms
 sirius::Beta_projectors_base::generate                           1664     199.14 ms       0.06     100.00     110.73 us      80.61 us     711.30 us
 sirius::Hamiltonian0                                              148     162.81 ms       0.05     100.00       1.05 ms     681.51 us       6.27 ms
 sirius_api::sirius_get_wave_functions                             117     160.23 ms       0.05     100.00       1.34 ms       1.24 ms       1.89 ms
 sirius::K_point::update                                           260     155.03 ms       0.04     100.00     531.88 us     410.37 us       1.59 ms
 sirius::Beta_projectors_strain_deriv::generate_pw_coefs_t         117     146.16 ms       0.04     100.00       1.27 ms     760.74 us       1.56 ms
 sirius::Stress|ewald                                                9     139.37 ms       0.04     100.00      15.42 ms      15.14 ms      16.10 ms
 sirius::Potential                                                   1     119.06 ms       0.03     100.00     119.06 ms     119.06 ms     119.06 ms
 sirius::Local_operator                                            148     101.29 ms       0.03     100.00     605.00 us     422.32 us       5.58 ms
 sirius::Radial_integrals|atomic_wfs                                 4      99.83 ms       0.03     100.00      19.71 ms       1.46 us      60.42 ms
 sirius::Beta_projectors                                           260      99.59 ms       0.03     100.00     308.69 us     226.52 us       1.33 ms
 sirius::Density::mixer_input                                      130      95.73 ms       0.03     100.00     696.10 us     558.26 us       1.33 ms
 sirius::K_point::generate_atomic_wave_functions                   234      94.68 ms       0.03     100.00     401.20 us     341.92 us     568.50 us
 sirius::K_point_set::initialize                                     1      90.45 ms       0.03     100.00      90.45 ms      90.45 ms      90.45 ms
 sirius::K_point::initialize                                        26      89.06 ms       0.03     100.00       3.42 ms       3.11 ms       4.27 ms
 sirius::Simulation_context::init_atoms_to_grid_idx                 10      86.35 ms       0.02     100.00       7.93 ms       6.96 ms      10.98 ms
 sddk::Gvec::init                                                   28      62.90 ms       0.02     100.00     394.66 us     355.32 us      48.38 ms
 sirius::Density::symmetrize_density_matrix                        130      60.44 ms       0.02     100.00     452.89 us     414.12 us     749.10 us
 sirius::Beta_projectors::generate_pw_coefs_t                      260      58.33 ms       0.02     100.00     180.03 us     124.70 us     910.11 us
 sirius::K_point::generate_gkvec                                    26      55.37 ms       0.02     100.00       2.07 ms       1.72 ms       3.09 ms
 sirius::Stress|us|prepare                                         162      55.28 ms       0.02     100.00     310.21 us     167.88 us       2.84 ms
 sirius::Stress|har                                                  9      55.18 ms       0.02     100.00       6.13 ms       5.89 ms       6.39 ms
 sirius::Band::initialize_subspace|kp|wf                           234      54.99 ms       0.02     100.00     232.78 us     197.63 us     343.67 us
 sirius::Augmentation_operator_gvec_deriv::prepare                  18      50.81 ms       0.01     100.00       2.75 ms       1.43 ms       4.19 ms
 sddk::matrix_storage::remap_forward                             22559      45.32 ms       0.01     100.00       1.70 us     857.00 ns      36.29 us
 Eigensolver_lapack|zhegvx                                         117      43.60 ms       0.01     100.00     358.30 us     321.54 us     767.18 us
 sirius::Q_operator::initialize                                    148      38.42 ms       0.01     100.00     312.98 us     148.19 us     520.74 us
 qe|setlocal                                                         1      32.35 ms       0.01     100.00      32.35 ms      32.35 ms      32.35 ms
 qe|punch                                                            1      31.38 ms       0.01     100.00      31.38 ms      31.38 ms      31.38 ms
 sirius::Unit_cell::update                                          11      30.31 ms       0.01     100.00       2.94 ms       2.38 ms       3.04 ms
 sirius::Unit_cell::get_symmetry                                    11      28.30 ms       0.01     100.00       2.75 ms       2.18 ms       2.86 ms
 sirius::Crystal_symmetry                                           11      27.65 ms       0.01     100.00       2.69 ms       2.12 ms       2.79 ms
 fft                                                                13      27.47 ms       0.01     100.00       2.07 ms       1.78 ms       2.72 ms
 sddk::wf_inner|scale_back                                       79628      24.54 ms       0.01     100.00     202.00 ns      47.00 ns      34.85 us
 sirius::Crystal_symmetry|spg                                       11      24.46 ms       0.01     100.00       2.41 ms       1.82 ms       2.51 ms
 sirius::D_operator::initialize                                    148      20.48 ms       0.01     100.00     166.35 us      80.87 us     233.66 us
 qe|paw_potential                                                    1      19.51 ms       0.01     100.00      19.51 ms      19.51 ms      19.51 ms
 PAW_pot                                                             1      19.48 ms       0.01     100.00      19.48 ms      19.48 ms      19.48 ms
 Eigensolver_lapack|chegvx                                         117      17.71 ms       0.01     100.00     138.16 us     101.19 us       1.20 ms
 sddk::matrix_storage::remap_backward                            20869      15.74 ms       0.00     100.00     626.00 ns     113.00 ns      41.79 us
 sddk::wf_inner|scale                                            79628      14.64 ms       0.00     100.00     104.00 ns      42.00 ns      27.22 us
 qe|set_vrs                                                          1      13.42 ms       0.00     100.00      13.42 ms      13.42 ms      13.42 ms
 v_h                                                                 1      12.60 ms       0.00     100.00      12.60 ms      12.60 ms      12.60 ms
 interpolate                                                         1       6.25 ms       0.00     100.00       6.25 ms       6.25 ms       6.25 ms
 qe|setup                                                            1       4.25 ms       0.00     100.00       4.25 ms       4.25 ms       4.25 ms
 davcio                                                             13       4.01 ms       0.00     100.00     304.65 us     257.51 us     374.78 us
 sirius::Unit_cell::initialize                                       1       3.53 ms       0.00     100.00       3.53 ms       3.53 ms       3.53 ms
 sirius::Unit_cell::find_nearest_neighbours                         11       1.90 ms       0.00     100.00     182.57 us      77.20 us     195.91 us
 sirius::Force::symmetrize                                          54     865.41 us       0.00     100.00      15.61 us       6.12 us      31.57 us
 sirius::Atom_type::init                                             3     486.25 us       0.00     100.00     168.52 us     122.61 us     195.12 us
 sirius::Beta_projectors_base::prepare                             234     393.80 us       0.00     100.00       1.39 us     593.00 ns      18.38 us
 sirius::Non_local_operator                                        296     379.25 us       0.00     100.00       1.14 us     125.00 ns      14.17 us
 ffts                                                                1     300.59 us       0.00     100.00     300.59 us     300.59 us     300.59 us
 sirius::Simulation_context::init_comm                               1     271.73 us       0.00     100.00     271.73 us     271.73 us     271.73 us
 sirius::find_sym_atom                                             264     256.94 us       0.00     100.00     572.50 ns     447.00 ns      13.18 us
 sirius::Crystal_symmetry|mag                                       11     196.11 us       0.00     100.00      17.27 us      10.94 us      25.77 us
 sirius::initialize                                                  1     109.95 us       0.00     100.00     109.95 us     109.95 us     109.95 us
 sirius::K_point::K_point                                           26      88.20 us       0.00     100.00       2.94 us       2.62 us       8.74 us
 qe|paw_becsum                                                       1      64.50 us       0.00     100.00      64.50 us      64.50 us      64.50 us
 PAW_symme                                                           1      48.16 us       0.00     100.00      48.16 us      48.16 us      48.16 us
 sirius::Beta_projectors_base::dismiss                             234      40.37 us       0.00     100.00      73.00 ns      39.00 ns      18.98 us
 sirius::finalize                                                    1      14.78 us       0.00     100.00      14.78 us      14.78 us      14.78 us

=====================================================================================================================================================
Note: The following floating-point exceptions are signalling: IEEE_UNDERFLOW_FLAG IEEE_DENORMAL
STOP 3
