SIRIUS 7.2.8, git hash: 589ccf589dda66cbcce7b02683cba0c7a6e3f3ae

     Program PWSCF v.6.8 starts on 11Oct2021 at 12:32:29 

     This program is part of the open-source Quantum ESPRESSO suite
     for quantum simulation of materials; please cite
         "P. Giannozzi et al., J. Phys.:Condens. Matter 21 395502 (2009);
         "P. Giannozzi et al., J. Phys.:Condens. Matter 29 465901 (2017);
         "P. Giannozzi et al., J. Chem. Phys. 152 154105 (2020);
          URL http://www.quantum-espresso.org", 
     in publications or presentations arising from this work. More details at
     http://www.quantum-espresso.org/quote

     Parallel version (MPI & OpenMP), running on      16 processor cores
     Number of MPI processes:                 1
     Threads/MPI process:                    16

     MPI processes distributed on     1 nodes
     29093 MiB available memory on the printing compute node when the environment starts

     Reading input from aiida.in

     Current dimensions of program PWSCF are:
     Max number of different atomic species (ntypx) = 10
     Max number of k-points (npk) =  40000
     Max angular momentum in pseudopotentials (lmaxx) =  4
     file O.pbe-n-kjpaw_psl.0.1.UPF: wavefunction(s)  2P renormalized
     Message from routine setup:
     using ibrav=0 with symmetry is DISCOURAGED, use correct ibrav instead

     Subspace diagonalization in iterative solution of the eigenvalue problem:
     a serial algorithm will be used


     G-vector sticks info
     --------------------
     sticks:   dense  smooth     PW     G-vecs:    dense   smooth      PW
     Sum        4643     917    305               152303    13575    2527

     Using Slab Decomposition



     bravais-lattice index     =            0
     lattice parameter (alat)  =      10.5934  a.u.
     unit-cell volume          =     285.2215 (a.u.)^3
     number of atoms/cell      =            4
     number of atomic types    =            3
     number of electrons       =        35.00
     number of Kohn-Sham states=           22
     kinetic-energy cutoff     =      50.0000  Ry
     charge density cutoff     =    1000.0000  Ry
     scf convergence threshold =      1.0E-11
     mixing beta               =       0.7000
     number of iterations used =            8  plain     mixing
     energy convergence thresh.=      1.0E-04
     force convergence thresh. =      1.0E-03
     press convergence thresh. =      5.0E-01
     Exchange-correlation= SLA  PW   PBX  PBC
                           (   1   4   3   4   0   0   0)
     nstep                     =           50


     celldm(1)=  10.593382  celldm(2)=   0.000000  celldm(3)=   0.000000
     celldm(4)=   0.000000  celldm(5)=   0.000000  celldm(6)=   0.000000

     crystal axes: (cart. coord. in units of alat)
               a(1) = (   0.269988   0.155878   0.950162 )  
               a(2) = (  -0.269988   0.155878   0.950162 )  
               a(3) = (   0.000000  -0.311756   0.950162 )  

     reciprocal axes: (cart. coord. in units 2 pi/alat)
               b(1) = (  1.851932  1.069213  0.350817 )  
               b(2) = ( -1.851932  1.069213  0.350817 )  
               b(3) = ( -0.000000 -2.138427  0.350817 )  


     PseudoPot. # 1 for Cr read from file:
     ./pseudo/cr_pbe_v1.5.uspp.F.UPF
     MD5 check sum: 0d52af634a40206e4dee301ad30da4bf
     Pseudo is Ultrasoft + core correction, Zval = 14.0
     Generated by new atomic code, or converted to UPF format
     Using radial grid of  857 points,  6 beta functions with: 
                l(1) =   0
                l(2) =   0
                l(3) =   1
                l(4) =   1
                l(5) =   2
                l(6) =   2
     Q(r) pseudized with  8 coefficients,  rinner =    0.950   0.950   0.950
                                                       0.950   0.950

     PseudoPot. # 2 for Na read from file:
     ./pseudo/Na_ONCV_PBE-1.0.upf
     MD5 check sum: 8619a8fc970a30df18a75067eea56141
     Pseudo is Norm-conserving, Zval =  9.0
     Generated using ONCVPSP code by D. R. Hamann
     Using radial grid of  602 points,  4 beta functions with: 
                l(1) =   0
                l(2) =   0
                l(3) =   1
                l(4) =   1

     PseudoPot. # 3 for O  read from file:
     ./pseudo/O.pbe-n-kjpaw_psl.0.1.UPF
     MD5 check sum: 3f94a2996a3169367d6eb21d9b593f20
     Pseudo is Projector augmented-wave + core cor, Zval =  6.0
     Generated using "atomic" code by A. Dal Corso  v.5.0.99 svn rev. 10869
     Shape of augmentation charge: BESSEL
     Using radial grid of 1095 points,  4 beta functions with: 
                l(1) =   0
                l(2) =   0
                l(3) =   1
                l(4) =   1
     Q(r) pseudized with 0 coefficients 


     atomic species   valence    mass     pseudopotential
        Cr            14.00    51.99600     Cr( 1.00)
        Na             9.00    22.98977     Na( 1.00)
        O              6.00    15.99940     O ( 1.00)

     12 Sym. Ops., with inversion, found


                                    s                        frac. trans.

      isym =  1     identity                                     

 cryst.   s( 1) = (     1          0          0      )
                  (     0          1          0      )
                  (     0          0          1      )

 cart.    s( 1) = (  1.0000000  0.0000000  0.0000000 )
                  (  0.0000000  1.0000000 -0.0000000 )
                  ( -0.0000000  0.0000000  1.0000000 )


      isym =  2     180 deg rotation - cart. axis [1,0,0]        

 cryst.   s( 2) = (     0         -1          0      )
                  (    -1          0          0      )
                  (     0          0         -1      )

 cart.    s( 2) = (  1.0000000 -0.0000000 -0.0000000 )
                  ( -0.0000000 -1.0000000  0.0000000 )
                  ( -0.0000000 -0.0000000 -1.0000000 )


      isym =  3     120 deg rotation - cryst. axis [0,0,1]       

 cryst.   s( 3) = (     0          1          0      )
                  (     0          0          1      )
                  (     1          0          0      )

 cart.    s( 3) = ( -0.5000000 -0.8660254  0.0000000 )
                  (  0.8660254 -0.5000000 -0.0000000 )
                  ( -0.0000000 -0.0000000  1.0000000 )


      isym =  4     120 deg rotation - cryst. axis [0,0,-1]      

 cryst.   s( 4) = (     0          0          1      )
                  (     1          0          0      )
                  (     0          1          0      )

 cart.    s( 4) = ( -0.5000000  0.8660254  0.0000000 )
                  ( -0.8660254 -0.5000000 -0.0000000 )
                  (  0.0000000  0.0000000  1.0000000 )


      isym =  5     180 deg rotation - cryst. axis [0,1,0]       

 cryst.   s( 5) = (    -1          0          0      )
                  (     0          0         -1      )
                  (     0         -1          0      )

 cart.    s( 5) = ( -0.5000000 -0.8660254 -0.0000000 )
                  ( -0.8660254  0.5000000  0.0000000 )
                  (  0.0000000 -0.0000000 -1.0000000 )


      isym =  6     180 deg rotation - cryst. axis [1,1,0]       

 cryst.   s( 6) = (     0          0         -1      )
                  (     0         -1          0      )
                  (    -1          0          0      )

 cart.    s( 6) = ( -0.5000000  0.8660254 -0.0000000 )
                  (  0.8660254  0.5000000  0.0000000 )
                  (  0.0000000  0.0000000 -1.0000000 )


      isym =  7     inversion                                    

 cryst.   s( 7) = (    -1          0          0      )
                  (     0         -1          0      )
                  (     0          0         -1      )

 cart.    s( 7) = ( -1.0000000 -0.0000000 -0.0000000 )
                  ( -0.0000000 -1.0000000  0.0000000 )
                  (  0.0000000 -0.0000000 -1.0000000 )


      isym =  8     inv. 180 deg rotation - cart. axis [1,0,0]   

 cryst.   s( 8) = (     0          1          0      )
                  (     1          0          0      )
                  (     0          0          1      )

 cart.    s( 8) = ( -1.0000000  0.0000000  0.0000000 )
                  (  0.0000000  1.0000000 -0.0000000 )
                  (  0.0000000  0.0000000  1.0000000 )


      isym =  9     inv. 120 deg rotation - cryst. axis [0,0,1]  

 cryst.   s( 9) = (     0         -1          0      )
                  (     0          0         -1      )
                  (    -1          0          0      )

 cart.    s( 9) = (  0.5000000  0.8660254 -0.0000000 )
                  ( -0.8660254  0.5000000  0.0000000 )
                  (  0.0000000  0.0000000 -1.0000000 )


      isym = 10     inv. 120 deg rotation - cryst. axis [0,0,-1] 

 cryst.   s(10) = (     0          0         -1      )
                  (    -1          0          0      )
                  (     0         -1          0      )

 cart.    s(10) = (  0.5000000 -0.8660254 -0.0000000 )
                  (  0.8660254  0.5000000  0.0000000 )
                  ( -0.0000000 -0.0000000 -1.0000000 )


      isym = 11     inv. 180 deg rotation - cryst. axis [0,1,0]  

 cryst.   s(11) = (     1          0          0      )
                  (     0          0          1      )
                  (     0          1          0      )

 cart.    s(11) = (  0.5000000  0.8660254  0.0000000 )
                  (  0.8660254 -0.5000000 -0.0000000 )
                  ( -0.0000000  0.0000000  1.0000000 )


      isym = 12     inv. 180 deg rotation - cryst. axis [1,1,0]  

 cryst.   s(12) = (     0          0          1      )
                  (     0          1          0      )
                  (     1          0          0      )

 cart.    s(12) = (  0.5000000 -0.8660254  0.0000000 )
                  ( -0.8660254 -0.5000000 -0.0000000 )
                  ( -0.0000000 -0.0000000  1.0000000 )


   Cartesian axes

     site n.     atom                  positions (alat units)
         1           Cr  tau(   1) = (   0.0000000   0.0000000   1.4252435  )
         2           Na  tau(   2) = (   0.0000000   0.0000000   2.8504869  )
         3           O   tau(   3) = (   0.0000000   0.0000000   0.6594884  )
         4           O   tau(   4) = (   0.0000000   0.0000000   2.1909986  )

   Crystallographic axes

     site n.     atom                  positions (cryst. coord.)
         1           Cr  tau(   1) = (  0.5000000  0.5000000  0.5000000  )
         2           Na  tau(   2) = (  1.0000000  1.0000000  1.0000000  )
         3           O   tau(   3) = (  0.2313599  0.2313599  0.2313599  )
         4           O   tau(   4) = (  0.7686401  0.7686401  0.7686401  )

     number of k points=    13  Gaussian smearing, width (Ry)=  0.1000
                       cart. coord. in units 2pi/alat
        k(    1) = (   0.0000000   0.0000000   0.0000000), wk =   0.0312500
        k(    2) = (  -0.0000000  -0.5346067   0.0877043), wk =   0.1875000
        k(    3) = (   0.0000000   1.0692135  -0.1754086), wk =   0.0937500
        k(    4) = (  -0.4629830  -0.2673034   0.1754086), wk =   0.1875000
        k(    5) = (  -0.4629830   1.3365168  -0.0877043), wk =   0.3750000
        k(    6) = (  -0.4629830   0.8019101   0.0000000), wk =   0.1875000
        k(    7) = (   0.9259660   0.5346067  -0.3508173), wk =   0.0937500
        k(    8) = (  -0.0000000   0.0000000   0.2631129), wk =   0.0625000
        k(    9) = (   0.0000000   1.6038202   0.0000000), wk =   0.1875000
        k(   10) = (   0.0000000   1.0692135   0.0877043), wk =   0.1875000
        k(   11) = (   1.3889490   0.8019101  -0.2631129), wk =   0.1875000
        k(   12) = (   1.3889490   0.2673034  -0.1754086), wk =   0.1875000
        k(   13) = (   0.0000000   0.0000000  -0.5262259), wk =   0.0312500

                       cryst. coord.
        k(    1) = (   0.0000000   0.0000000   0.0000000), wk =   0.0312500
        k(    2) = (  -0.0000000  -0.0000000   0.2500000), wk =   0.1875000
        k(    3) = (   0.0000000   0.0000000  -0.5000000), wk =   0.0937500
        k(    4) = (  -0.0000000   0.2500000   0.2500000), wk =   0.1875000
        k(    5) = (   0.0000000   0.2500000  -0.5000000), wk =   0.3750000
        k(    6) = (  -0.0000000   0.2500000  -0.2500000), wk =   0.1875000
        k(    7) = (   0.0000000  -0.5000000  -0.5000000), wk =   0.0937500
        k(    8) = (   0.2500000   0.2500000   0.2500000), wk =   0.0625000
        k(    9) = (   0.2500000   0.2500000  -0.5000000), wk =   0.1875000
        k(   10) = (   0.2500000   0.2500000  -0.2500000), wk =   0.1875000
        k(   11) = (   0.2500000  -0.5000000  -0.5000000), wk =   0.1875000
        k(   12) = (   0.2500000  -0.5000000  -0.2500000), wk =   0.1875000
        k(   13) = (  -0.5000000  -0.5000000  -0.5000000), wk =   0.0312500

     Dense  grid:   152303 G-vectors     FFT dimensions: ( 108, 108, 108)

     Smooth grid:    13575 G-vectors     FFT dimensions: (  48,  48,  48)

SIRIUS version : 7.2.8
git hash       : 589ccf589dda66cbcce7b02683cba0c7a6e3f3ae
git branch     : heads/experimental/switch-fp32-to-fp64
build time     : 2021-10-08 15:54:50
start time     : Mon, 11 Oct 2021 12:32:33

number of MPI ranks           : 1
MPI grid                      : 1 1
maximum number of OMP threads : 16
number of MPI ranks per node  : 1
page size (Kb)                : 4
number of pages               : 16466695
available memory (GB)         : 62

FFT context for density and potential
=====================================
  comm size                             : 1
  plane wave cutoff                     : 31.622777
  grid size                             : 108 108 108   total : 1259712
  grid limits                           : -53 54   -53 54   -53 54
  number of G-vectors within the cutoff : 76152
  local number of G-vectors             : 76152
  number of G-shells                    : 12121

FFT context for coarse grid
=====================================
  comm size                             : 1
  plane wave cutoff                     : 14.142136
  grid size                             : 50 50 50   total : 125000
  grid limits                           : -24 25   -24 25   -24 25
  number of G-vectors within the cutoff : 6788
  local number of G-vectors             : 6788
  number of G-shells                    : 1210

number of local G-vector blocks: 1

Unit cell
--------------------------------------------------------------------------------
lattice vectors
  a1 :       2.8600891671       1.6512732506      10.0654319112 
  a2 :      -2.8600891671       1.6512732506      10.0654319112 
  a3 :       0.0000000000      -3.3025465012      10.0654319112 
reciprocal lattice vectors
  b1 :       1.0984247238       0.6341758100       0.2080780160 
  b2 :      -1.0984247238       0.6341758100       0.2080780160 
  b3 :      -0.0000000000      -1.2683516199       0.2080780160 

unit cell volume :       285.22145072 [a.u.^3]
1/sqrt(omega)    :         0.05921189
MT volume        : 0.000000 ( 0.00%)
IT volume        : 285.221451 (100.00%)

number of atom types : 3
type id : 0   symbol :      mt_radius : 206.524747, num_atoms: 1
type id : 1   symbol :      mt_radius :   6.010000, num_atoms: 1
type id : 2   symbol :      mt_radius :  99.043432, num_atoms: 2
total number of atoms : 4
number of symmetry classes : 3
number of PAW atoms : 2

atom id              position                    vector_field        type id    class id
----------------------------------------------------------------------------------------
     0      0.500000 0.500000 0.500000   0.000000 0.000000 0.000000        0           0
     1      1.000000 1.000000 1.000000   0.000000 0.000000 0.000000        1           1
     2      0.231360 0.231360 0.231360   0.000000 0.000000 0.000000        2           2
     3      0.768640 0.768640 0.768640   0.000000 0.000000 0.000000        2           2

class id : 0   atom id : 0 
class id : 1   atom id : 1 
class id : 2   atom id : 2 3 

atom id              position (Cartesian, a.u.)
----------------------------------------------------------------------------------------
     0          0.000000000000     0.000000000000    15.098147866697
     1          0.000000000000     0.000000000000    30.196295733395
     2          0.000000000000    -0.000000000000     6.986211790170
     3         -0.000000000000    -0.000000000000    23.210083943413

class id : 0   atom id : 0 
class id : 1   atom id : 1 
class id : 2   atom id : 2 3 

minimum bond length:       3.837050868507

number of pseudo wave-functions: 18

space group number   : 166
international symbol : R-3m
Hall symbol          : -R 3 2"
space group transformation matrix : 
    0.666667    -0.333333    -0.333333 
    0.333333     0.333333    -0.666667 
    0.333333     0.333333     0.333333 
space group origin shift : 
   -0.000000    -0.000000     0.000000
number of space group operations  : 12
number of magnetic group operations : 12
metric tensor error:     0.000000000625
rotation matrix error:     0.000000000066
symmetry operations  : 
isym : 0
R :   1   0   0 
      0   1   0 
      0   0   1 
Rc:   1.0000   0.0000  -0.0000 
      0.0000   1.0000   0.0000 
      0.0000   0.0000   1.0000 
t :   0.0000   0.0000   0.0000 
S :   1.0000   0.0000  -0.0000 
      0.0000   1.0000   0.0000 
      0.0000   0.0000   1.0000 
proper: 1

isym : 1
R :  -1   0   0 
      0  -1   0 
      0   0  -1 
Rc:  -1.0000  -0.0000   0.0000 
     -0.0000  -1.0000  -0.0000 
     -0.0000  -0.0000  -1.0000 
t :  -0.0000  -0.0000  -0.0000 
S :   1.0000   0.0000  -0.0000 
      0.0000   1.0000   0.0000 
      0.0000   0.0000   1.0000 
proper: -1

isym : 2
R :   0   0   1 
      1   0   0 
      0   1   0 
Rc:  -0.5000  -0.8660   0.0000 
      0.8660  -0.5000   0.0000 
      0.0000   0.0000   1.0000 
t :   0.0000  -0.0000   0.0000 
S :   1.0000   0.0000  -0.0000 
      0.0000   1.0000   0.0000 
      0.0000   0.0000   1.0000 
proper: 1

isym : 3
R :   0   0  -1 
     -1   0   0 
      0  -1   0 
Rc:   0.5000   0.8660  -0.0000 
     -0.8660   0.5000  -0.0000 
     -0.0000  -0.0000  -1.0000 
t :  -0.0000  -0.0000  -0.0000 
S :   1.0000   0.0000  -0.0000 
      0.0000   1.0000   0.0000 
      0.0000   0.0000   1.0000 
proper: -1

isym : 4
R :   0   1   0 
      0   0   1 
      1   0   0 
Rc:  -0.5000   0.8660  -0.0000 
     -0.8660  -0.5000  -0.0000 
      0.0000   0.0000   1.0000 
t :   0.0000  -0.0000  -0.0000 
S :   1.0000   0.0000  -0.0000 
      0.0000   1.0000   0.0000 
      0.0000   0.0000   1.0000 
proper: 1

isym : 5
R :   0  -1   0 
      0   0  -1 
     -1   0   0 
Rc:   0.5000  -0.8660   0.0000 
      0.8660   0.5000   0.0000 
     -0.0000  -0.0000  -1.0000 
t :  -0.0000  -0.0000  -0.0000 
S :   1.0000   0.0000  -0.0000 
      0.0000   1.0000   0.0000 
      0.0000   0.0000   1.0000 
proper: -1

isym : 6
R :   0   0  -1 
      0  -1   0 
     -1   0   0 
Rc:  -0.5000   0.8660  -0.0000 
      0.8660   0.5000   0.0000 
     -0.0000  -0.0000  -1.0000 
t :  -0.0000  -0.0000  -0.0000 
S :   1.0000   0.0000  -0.0000 
      0.0000   1.0000   0.0000 
      0.0000   0.0000   1.0000 
proper: 1

isym : 7
R :   0   0   1 
      0   1   0 
      1   0   0 
Rc:   0.5000  -0.8660   0.0000 
     -0.8660  -0.5000  -0.0000 
      0.0000   0.0000   1.0000 
t :   0.0000   0.0000  -0.0000 
S :   1.0000   0.0000  -0.0000 
      0.0000   1.0000   0.0000 
      0.0000   0.0000   1.0000 
proper: -1

isym : 8
R :   0  -1   0 
     -1   0   0 
      0   0  -1 
Rc:   1.0000   0.0000  -0.0000 
     -0.0000  -1.0000  -0.0000 
     -0.0000  -0.0000  -1.0000 
t :  -0.0000  -0.0000  -0.0000 
S :   1.0000   0.0000  -0.0000 
      0.0000   1.0000   0.0000 
      0.0000   0.0000   1.0000 
proper: 1

isym : 9
R :   0   1   0 
      1   0   0 
      0   0   1 
Rc:  -1.0000  -0.0000   0.0000 
      0.0000   1.0000   0.0000 
      0.0000   0.0000   1.0000 
t :   0.0000  -0.0000   0.0000 
S :   1.0000   0.0000  -0.0000 
      0.0000   1.0000   0.0000 
      0.0000   0.0000   1.0000 
proper: -1

isym : 10
R :  -1   0   0 
      0   0  -1 
      0  -1   0 
Rc:  -0.5000  -0.8660   0.0000 
     -0.8660   0.5000  -0.0000 
     -0.0000  -0.0000  -1.0000 
t :  -0.0000  -0.0000  -0.0000 
S :   1.0000   0.0000  -0.0000 
      0.0000   1.0000   0.0000 
      0.0000   0.0000   1.0000 
proper: 1

isym : 11
R :   1   0   0 
      0   0   1 
      0   1   0 
Rc:   0.5000   0.8660  -0.0000 
      0.8660  -0.5000   0.0000 
      0.0000   0.0000   1.0000 
t :   0.0000  -0.0000   0.0000 
S :   1.0000   0.0000  -0.0000 
      0.0000   1.0000   0.0000 
      0.0000   0.0000   1.0000 
proper: -1


label          : Cr
--------------------------------------------------------------------------------
symbol         : 
name           : 
zn             : 14
mass           : 51.996000
mt_radius      : 206.524747
num_mt_points  : 857
grid_origin    : 0.000000
grid_name      : external

number of core electrons    : 0.000000
number of valence electrons : 14.000000

total number of radial functions : 6
lmax of radial functions         : 2
max. number of radial functions  : 2
total number of basis functions  : 18
number of aw basis functions     : 0
number of lo basis functions     : 18
lmax of beta-projectors          : 2
number of ps wavefunctions       : 4
charge augmentation              : true
vloc is set                      : true
ps_rho_core is set               : true
ps_rho_total is set              : true
Hubbard correction               : false
spin-orbit coupling              : false

label          : Na
--------------------------------------------------------------------------------
symbol         : 
name           : 
zn             : 9
mass           : 22.989770
mt_radius      : 6.010000
num_mt_points  : 602
grid_origin    : 0.000000
grid_name      : external

number of core electrons    : 0.000000
number of valence electrons : 9.000000

total number of radial functions : 4
lmax of radial functions         : 1
max. number of radial functions  : 2
total number of basis functions  : 8
number of aw basis functions     : 0
number of lo basis functions     : 8
lmax of beta-projectors          : 1
number of ps wavefunctions       : 0
charge augmentation              : false
vloc is set                      : true
ps_rho_core is set               : true
ps_rho_total is set              : true
Hubbard correction               : false
spin-orbit coupling              : false

label          : O
--------------------------------------------------------------------------------
symbol         : 
name           : 
zn             : 6
mass           : 15.999400
mt_radius      : 99.043432
num_mt_points  : 1095
grid_origin    : 0.000114
grid_name      : external

number of core electrons    : 0.000000
number of valence electrons : 6.000000

total number of radial functions : 4
lmax of radial functions         : 1
max. number of radial functions  : 2
total number of basis functions  : 8
number of aw basis functions     : 0
number of lo basis functions     : 8
lmax of beta-projectors          : 1
number of ps wavefunctions       : 2
charge augmentation              : true
vloc is set                      : true
ps_rho_core is set               : true
ps_rho_total is set              : true
Hubbard correction               : false
spin-orbit coupling              : false

Basic information
--------------------------------------------------------------------------------
total nuclear charge               : 35
number of core electrons           : 0.000000
number of valence electrons        : 35.000000
total number of electrons          : 35.000000
extra charge                       : 0.000000
total number of aw basis functions : 0
total number of lo basis functions : 42
number of first-variational states : -1
number of bands                    : 22
number of spins                    : 1
number of magnetic dimensions      : 0
number of spinor components        : 1
number of spinors per band index   : 1
lmax_apw                           : -1
lmax_rho                           : 4
lmax_pot                           : 4
lmax_rf                            : 2
smearing type                      : gaussian
smearing width                     : 0.050000
cyclic block size                  : 16
|G+k| cutoff                       : 7.071068
symmetry                           : true
so_correction                      : false
valence relativity                 : zora
core relativity                    : Dirac
standard eigen-value solver        : LAPACK
generalized eigen-value solver     : LAPACK
processing unit                    : CPU

iterative solver                   : davidson
number of steps                    : 20
subspace size                      : 2
early restart ratio                : 0.50
precision_wf                       : fp64
precision_hs                       : fp64

spglib version: 1.16.1
HDF5 version: 1.10.7
Libxc version: 5.1.5

XC functionals
==============
1) XC_GGA_X_PBE: Perdew, Burke & Ernzerhof
J. P. Perdew, K. Burke, and M. Ernzerhof, Phys. Rev. Lett. 77, 3865 (1996) (10.1103/PhysRevLett.77.3865)
J. P. Perdew, K. Burke, and M. Ernzerhof, Phys. Rev. Lett. 78, 1396 (1997) (10.1103/PhysRevLett.78.1396)

2) XC_GGA_C_PBE: Perdew, Burke & Ernzerhof
J. P. Perdew, K. Burke, and M. Ernzerhof, Phys. Rev. Lett. 77, 3865 (1996) (10.1103/PhysRevLett.77.3865)
J. P. Perdew, K. Burke, and M. Ernzerhof, Phys. Rev. Lett. 78, 1396 (1997) (10.1103/PhysRevLett.78.1396)


memory consumption
==================
approximate number of G+k vectors        : 1702
approximate number of G vectors          : 76155
approximate number of coarse G vectors   : 6811
approximate size of wave-functions for each k-point: 0 Mb, 0 Mb/rank
approximate memory consumption of Davidson solver: 6 Mb/rank
approximate memory consumption of charge density augmentation: 598 Mb/rank
approximate memory consumption of FFT transforms: 21 Mb/rank

total number of k-points : 13
--------------------------------------------------------------------------------
  ik                vk                    weight  num_gkvec
--------------------------------------------------------------------------------
   0     0.0000   0.0000   0.0000       0.015625       1697
   1    -0.0000  -0.0000   0.2500       0.093750       1707
   2     0.0000   0.0000  -0.5000       0.046875       1692
   3    -0.0000   0.2500   0.2500       0.093750       1716
   4    -0.0000   0.2500  -0.5000       0.187500       1694
   5    -0.0000   0.2500  -0.2500       0.093750       1696
   6     0.0000  -0.5000  -0.5000       0.046875       1702
   7     0.2500   0.2500   0.2500       0.031250       1709
   8     0.2500   0.2500  -0.5000       0.093750       1710
   9     0.2500   0.2500  -0.2500       0.093750       1694
  10     0.2500  -0.5000  -0.5000       0.093750       1720
  11     0.2500  -0.5000  -0.2500       0.093750       1700
  12    -0.5000  -0.5000  -0.5000       0.015625       1696

=== Warning at line 217 of file /home/ubuntu/SIRIUS/src/density/density.cpp ===
wrong initial charge density
  integral of the density : 33.863275573
  target number of electrons : 35

[find] 
[find] density_tol  : 3.16228e-06
[find] energy_tol   : 0.0001
[find] itsol_tol    : 0.01
[find] num_dft_iter : 100
[find] 
[find] +------------------------------+
[find] | SCF iteration   0 out of 100|
[find] +------------------------------+
[find] 
[solve] iterative solver tolerance: 1.0000e-02
[davidson] eigen-value tolerance  :     0.010000000000
[davidson] empty states tolerance :     0.010000000000
[davidson] eigen-value tolerance  :     0.010000000000
[davidson] empty states tolerance :     0.010000000000
[davidson] eigen-value tolerance  :     0.010000000000
[davidson] empty states tolerance :     0.010000000000
[davidson] eigen-value tolerance  :     0.010000000000
[davidson] empty states tolerance :     0.010000000000
[davidson] eigen-value tolerance  :     0.010000000000
[davidson] empty states tolerance :     0.010000000000
[davidson] eigen-value tolerance  :     0.010000000000
[davidson] empty states tolerance :     0.010000000000
[davidson] eigen-value tolerance  :     0.010000000000
[davidson] empty states tolerance :     0.010000000000
[davidson] eigen-value tolerance  :     0.010000000000
[davidson] empty states tolerance :     0.010000000000
[davidson] eigen-value tolerance  :     0.010000000000
[davidson] empty states tolerance :     0.010000000000
[davidson] eigen-value tolerance  :     0.010000000000
[davidson] empty states tolerance :     0.010000000000
[davidson] eigen-value tolerance  :     0.010000000000
[davidson] empty states tolerance :     0.010000000000
[davidson] eigen-value tolerance  :     0.010000000000
[davidson] empty states tolerance :     0.010000000000
[davidson] eigen-value tolerance  :     0.010000000000
[davidson] empty states tolerance :     0.010000000000
[solve] average number of iterations:     6.076923
[solve] Lowest band energies
ik :  0,    -2.207144   -1.160398   -1.160381   -1.158397   -1.273712   -0.418533   -0.376305   -0.268888   -0.267326    0.091357
ik :  1,    -2.206768   -1.164303   -1.161214   -1.157619   -1.273429   -0.401607   -0.376255   -0.273134   -0.270894    0.107068
ik :  2,    -2.206386   -1.168141   -1.162035   -1.156840   -1.272868   -0.385073   -0.375073   -0.277654   -0.273931    0.078205
ik :  3,    -2.206767   -1.164300   -1.161218   -1.157620   -1.273405   -0.402371   -0.375178   -0.272156   -0.271189   -0.268538
ik :  4,    -2.206388   -1.166622   -1.163572   -1.156847   -1.272872   -0.382899   -0.377471   -0.275447   -0.273932   -0.271064
ik :  5,    -2.206388   -1.166626   -1.163572   -1.156845   -1.272788   -0.383388   -0.376896   -0.275728   -0.273872   -0.271102
ik :  6,    -2.206387   -1.168121   -1.162043   -1.156831   -1.272774   -0.381359   -0.379009   -0.277386   -0.272774   -0.269811
ik :  7,    -2.207144   -1.160397   -1.160381   -1.158408   -1.274008   -0.420160   -0.373485   -0.270683   -0.267363    0.098898
ik :  8,    -2.206766   -1.164303   -1.161213   -1.157643   -1.273393   -0.402129   -0.375811   -0.273492   -0.270499    0.102337
ik :  9,    -2.206385   -1.168136   -1.162034   -1.156839   -1.272648   -0.383705   -0.376514   -0.277477   -0.273075    0.074192
ik : 10,    -2.206766   -1.164300   -1.161220   -1.157634   -1.273292   -0.402881   -0.374720   -0.272849   -0.270650   -0.268660
ik : 11,    -2.206388   -1.166616   -1.163579   -1.156849   -1.272646   -0.382207   -0.378102   -0.275429   -0.273483   -0.271081
ik : 12,    -2.207144   -1.160393   -1.160381   -1.158423   -1.273934   -0.421630   -0.370759   -0.272446   -0.267346    0.108692
[find] 
[find] Charges and magnetic moments
[find] --------------------------------------------------------------------------------
[find] total charge          : 35.000000
[find] 
[find] Energy
[find] --------------------------------------------------------------------------------
[find] valence_eval_sum               :     -13.69956688
[find] <rho|V^{XC}>                   :     -30.69186513
[find] <rho|E^{XC}>                   :     -24.93849453
[find] <mag|B^{XC}>                   :       0.00000000
[find] <rho|V^{H}>                    :      91.65555620
[find] one-electron contribution      :     -74.51650247 (Ha),    -149.03300494 (Ry)
[find] hartree contribution           :      45.82777810
[find] xc contribution                :     -24.93849453
[find] ewald contribution             :    -107.69851775
[find] PAW contribution               :      -9.52086765
[find] smearing (-TS)                 :      -0.08633333
[find] SCF correction                 :      -0.29916245
[find] Total energy                   :    -171.23210008 (Ha),    -342.46420016 (Ry)
[find] 
[find] band gap (eV)                  :       0.00000000
[find] Efermi                         :       0.42376639
[find] 
[find] iteration : 0, RMS : 1.257103196417e+00, energy difference : -1.712321000778e+02
[find] 
[find] +------------------------------+
[find] | SCF iteration   1 out of 100|
[find] +------------------------------+
[find] 
[solve] iterative solver tolerance: 4.5152e-03
[davidson] eigen-value tolerance  :     0.004515166990
[davidson] empty states tolerance :     0.004515166990
[davidson] eigen-value tolerance  :     0.004515166990
[davidson] empty states tolerance :     0.004515166990
[davidson] eigen-value tolerance  :     0.004515166990
[davidson] empty states tolerance :     0.004515166990
[davidson] eigen-value tolerance  :     0.004515166990
[davidson] empty states tolerance :     0.004515166990
[davidson] eigen-value tolerance  :     0.004515166990
[davidson] empty states tolerance :     0.004515166990
[davidson] eigen-value tolerance  :     0.004515166990
[davidson] empty states tolerance :     0.004515166990
[davidson] eigen-value tolerance  :     0.004515166990
[davidson] empty states tolerance :     0.004515166990
[davidson] eigen-value tolerance  :     0.004515166990
[davidson] empty states tolerance :     0.004515166990
[davidson] eigen-value tolerance  :     0.004515166990
[davidson] empty states tolerance :     0.004515166990
[davidson] eigen-value tolerance  :     0.004515166990
[davidson] empty states tolerance :     0.004515166990
[davidson] eigen-value tolerance  :     0.004515166990
[davidson] empty states tolerance :     0.004515166990
[davidson] eigen-value tolerance  :     0.004515166990
[davidson] empty states tolerance :     0.004515166990
[davidson] eigen-value tolerance  :     0.004515166990
[davidson] empty states tolerance :     0.004515166990
[solve] average number of iterations:     5.076923
[solve] Lowest band energies
ik :  0,    -2.209605   -1.865777   -1.160655   -1.149416   -1.149416   -0.796397   -0.773242   -0.205493   -0.150990    0.205343
ik :  1,    -2.209255   -1.865544   -1.159698   -1.151934   -1.149990   -0.798739   -0.796790   -0.772664   -0.182908   -0.150096
ik :  2,    -2.208949   -1.865289   -1.159186   -1.153870   -1.150560   -0.801073   -0.772309   -0.797431   -0.156189   -0.149873
ik :  3,    -2.209247   -1.865545   -1.159629   -1.151935   -1.149990   -0.798686   -0.796920   -0.772638   -0.181473   -0.151920
ik :  4,    -2.208858   -1.865288   -1.160037   -1.153469   -1.151538   -0.800146   -0.798324   -0.772307   -0.156127   -0.150158
ik :  5,    -2.208967   -1.865288   -1.160036   -1.153470   -1.151537   -0.800143   -0.798347   -0.772315   -0.156987   -0.149334
ik :  6,    -2.209093   -1.865290   -1.159191   -1.153796   -1.150558   -0.800978   -0.797420   -0.772179   -0.155520   -0.150164
ik :  7,    -2.209651   -1.865794   -1.160379   -1.149417   -1.149415   -0.796395   -0.773272   -0.796454   -0.201693   -0.156531
ik :  8,    -2.209280   -1.865547   -1.159979   -1.151931   -1.149992   -0.798733   -0.772776   -0.796990   -0.179299   -0.154515
ik :  9,    -2.208960   -1.865284   -1.159342   -1.153994   -1.150560   -0.801057   -0.772195   -0.797237   -0.155888   -0.150058
ik : 10,    -2.209276   -1.865540   -1.159749   -1.151934   -1.149988   -0.798677   -0.796919   -0.772702   -0.177240   -0.156802
ik : 11,    -2.209008   -1.865292   -1.160038   -1.153468   -1.151534   -0.800142   -0.798319   -0.772242   -0.154835   -0.151351
ik : 12,    -2.209623   -1.865788   -1.160265   -1.149416   -1.149415   -0.796388   -0.773288   -0.796439   -0.196745   -0.163137
[find] 
[find] Charges and magnetic moments
[find] --------------------------------------------------------------------------------
[find] total charge          : 35.000000
[find] 
[find] Energy
[find] --------------------------------------------------------------------------------
[find] valence_eval_sum               :     -15.25609104
[find] <rho|V^{XC}>                   :     -30.52695616
[find] <rho|E^{XC}>                   :     -24.80557760
[find] <mag|B^{XC}>                   :       0.00000000
[find] <rho|V^{H}>                    :      90.88783584
[find] one-electron contribution      :     -75.42859507 (Ha),    -150.85719014 (Ry)
[find] hartree contribution           :      45.44391792
[find] xc contribution                :     -24.80557760
[find] ewald contribution             :    -107.69851775
[find] PAW contribution               :      -9.52245484
[find] smearing (-TS)                 :      -0.08844830
[find] SCF correction                 :       0.16759917
[find] Total energy                   :    -171.93207647 (Ha),    -343.86415293 (Ry)
[find] 
[find] band gap (eV)                  :       0.00000000
[find] Efermi                         :       0.46390243
[find] 
[find] iteration : 1, RMS : 1.529423098558e+00, energy difference : -6.999763876388e-01
[find] 
[find] +------------------------------+
[find] | SCF iteration   2 out of 100|
[find] +------------------------------+
[find] 
[solve] iterative solver tolerance: 4.2894e-03
[davidson] eigen-value tolerance  :     0.004289408640
[davidson] empty states tolerance :     0.004289408640
[davidson] eigen-value tolerance  :     0.004289408640
[davidson] empty states tolerance :     0.004289408640
[davidson] eigen-value tolerance  :     0.004289408640
[davidson] empty states tolerance :     0.004289408640
[davidson] eigen-value tolerance  :     0.004289408640
[davidson] empty states tolerance :     0.004289408640
[davidson] eigen-value tolerance  :     0.004289408640
[davidson] empty states tolerance :     0.004289408640
[davidson] eigen-value tolerance  :     0.004289408640
[davidson] empty states tolerance :     0.004289408640
[davidson] eigen-value tolerance  :     0.004289408640
[davidson] empty states tolerance :     0.004289408640
[davidson] eigen-value tolerance  :     0.004289408640
[davidson] empty states tolerance :     0.004289408640
[davidson] eigen-value tolerance  :     0.004289408640
[davidson] empty states tolerance :     0.004289408640
[davidson] eigen-value tolerance  :     0.004289408640
[davidson] empty states tolerance :     0.004289408640
[davidson] eigen-value tolerance  :     0.004289408640
[davidson] empty states tolerance :     0.004289408640
[davidson] eigen-value tolerance  :     0.004289408640
[davidson] empty states tolerance :     0.004289408640
[davidson] eigen-value tolerance  :     0.004289408640
[davidson] empty states tolerance :     0.004289408640
[solve] average number of iterations:     2.076923
[solve] Lowest band energies
ik :  0,    -2.171017   -1.660746   -1.119868   -1.119867   -1.118077   -0.611594   -0.611565   -0.602677   -0.343926   -0.296781
ik :  1,    -2.170691   -1.660433   -1.123179   -1.120580   -1.117405   -0.614918   -0.612277   -0.601767   -0.325854   -0.299114
ik :  2,    -2.170356   -1.660102   -1.126439   -1.121292   -1.116730   -0.618158   -0.612929   -0.600833   -0.306103   -0.301420
ik :  3,    -2.170693   -1.660438   -1.123179   -1.120581   -1.117405   -0.614910   -0.612281   -0.601775   -0.324855   -0.300156
ik :  4,    -2.170357   -1.660103   -1.125160   -1.122587   -1.116737   -0.616861   -0.614257   -0.600837   -0.306152   -0.301466
ik :  5,    -2.170357   -1.660103   -1.125159   -1.122587   -1.116737   -0.616860   -0.614258   -0.600812   -0.306423   -0.301237
ik :  6,    -2.170358   -1.660108   -1.126444   -1.121293   -1.116732   -0.618124   -0.612971   -0.600829   -0.306903   -0.300433
ik :  7,    -2.171022   -1.660754   -1.119867   -1.119867   -1.118074   -0.611593   -0.611565   -0.602777   -0.341462   -0.299759
ik :  8,    -2.170688   -1.660436   -1.123180   -1.120580   -1.117402   -0.614904   -0.612254   -0.601814   -0.324198   -0.300998
ik :  9,    -2.170355   -1.660102   -1.126442   -1.121292   -1.116731   -0.618146   -0.612930   -0.600831   -0.306525   -0.300937
ik : 10,    -2.170690   -1.660438   -1.123180   -1.120581   -1.117403   -0.614895   -0.612279   -0.601827   -0.322889   -0.302237
ik : 11,    -2.170357   -1.660108   -1.125161   -1.122587   -1.116736   -0.616853   -0.614256   -0.600839   -0.305834   -0.301708
ik : 12,    -2.171008   -1.660747   -1.119867   -1.119867   -1.118071   -0.611595   -0.611561   -0.602871   -0.338658   -0.303209
[find] 
[find] Charges and magnetic moments
[find] --------------------------------------------------------------------------------
[find] total charge          : 35.000000
[find] 
[find] Energy
[find] --------------------------------------------------------------------------------
[find] valence_eval_sum               :     -15.36525780
[find] <rho|V^{XC}>                   :     -30.53390786
[find] <rho|E^{XC}>                   :     -24.80987863
[find] <mag|B^{XC}>                   :       0.00000000
[find] <rho|V^{H}>                    :      89.95989228
[find] one-electron contribution      :     -74.61113326 (Ha),    -149.22226651 (Ry)
[find] hartree contribution           :      44.97994614
[find] xc contribution                :     -24.80987863
[find] ewald contribution             :    -107.69851775
[find] PAW contribution               :      -9.52002245
[find] smearing (-TS)                 :      -0.08822203
[find] SCF correction                 :      -0.37840610
[find] Total energy                   :    -172.12623407 (Ha),    -344.25246814 (Ry)
[find] 
[find] band gap (eV)                  :       0.00000000
[find] Efermi                         :       0.46466343
[find] 
[find] iteration : 2, RMS : 6.963496131306e-01, energy difference : -1.941576042151e-01
[find] 
[find] +------------------------------+
[find] | SCF iteration   3 out of 100|
[find] +------------------------------+
[find] 
[solve] iterative solver tolerance: 1.3854e-03
[davidson] eigen-value tolerance  :     0.001385436525
[davidson] empty states tolerance :     0.001385436525
[davidson] eigen-value tolerance  :     0.001385436525
[davidson] empty states tolerance :     0.001385436525
[davidson] eigen-value tolerance  :     0.001385436525
[davidson] empty states tolerance :     0.001385436525
[davidson] eigen-value tolerance  :     0.001385436525
[davidson] empty states tolerance :     0.001385436525
[davidson] eigen-value tolerance  :     0.001385436525
[davidson] empty states tolerance :     0.001385436525
[davidson] eigen-value tolerance  :     0.001385436525
[davidson] empty states tolerance :     0.001385436525
[davidson] eigen-value tolerance  :     0.001385436525
[davidson] empty states tolerance :     0.001385436525
[davidson] eigen-value tolerance  :     0.001385436525
[davidson] empty states tolerance :     0.001385436525
[davidson] eigen-value tolerance  :     0.001385436525
[davidson] empty states tolerance :     0.001385436525
[davidson] eigen-value tolerance  :     0.001385436525
[davidson] empty states tolerance :     0.001385436525
[davidson] eigen-value tolerance  :     0.001385436525
[davidson] empty states tolerance :     0.001385436525
[davidson] eigen-value tolerance  :     0.001385436525
[davidson] empty states tolerance :     0.001385436525
[davidson] eigen-value tolerance  :     0.001385436525
[davidson] empty states tolerance :     0.001385436525
[solve] average number of iterations:     1.692308
[solve] Lowest band energies
ik :  0,    -2.263432   -1.594882   -1.209645   -1.209645   -1.205431   -0.552382   -0.552380   -0.547902   -0.340135   -0.288267
ik :  1,    -2.263136   -1.594545   -1.212505   -1.210277   -1.204891   -0.556070   -0.553119   -0.546765   -0.321140   -0.291370
ik :  2,    -2.262837   -1.594192   -1.215329   -1.210907   -1.204350   -0.559635   -0.553862   -0.545627   -0.299458   -0.295328
ik :  3,    -2.263139   -1.594549   -1.212505   -1.210277   -1.204890   -0.556062   -0.553122   -0.546789   -0.320178   -0.292436
ik :  4,    -2.262835   -1.594192   -1.214229   -1.212019   -1.204355   -0.558193   -0.555298   -0.545636   -0.300288   -0.294589
ik :  5,    -2.262835   -1.594193   -1.214229   -1.212019   -1.204354   -0.558192   -0.555304   -0.545612   -0.300477   -0.294443
ik :  6,    -2.262839   -1.594197   -1.215329   -1.210908   -1.204352   -0.559598   -0.553868   -0.545613   -0.300584   -0.294090
ik :  7,    -2.263435   -1.594890   -1.209645   -1.209645   -1.205429   -0.552382   -0.552378   -0.548058   -0.337593   -0.291273
ik :  8,    -2.263134   -1.594547   -1.212505   -1.210277   -1.204891   -0.556052   -0.553125   -0.546859   -0.319407   -0.293152
ik :  9,    -2.262837   -1.594192   -1.215329   -1.210907   -1.204351   -0.559619   -0.553856   -0.545621   -0.300083   -0.294645
ik : 10,    -2.263138   -1.594552   -1.212505   -1.210277   -1.204891   -0.556042   -0.553114   -0.546873   -0.318307   -0.294364
ik : 11,    -2.262838   -1.594196   -1.214230   -1.212019   -1.204355   -0.558184   -0.555301   -0.545641   -0.300088   -0.294744
ik : 12,    -2.263425   -1.594883   -1.209645   -1.209645   -1.205428   -0.552381   -0.552377   -0.548216   -0.334705   -0.294638
[find] 
[find] Charges and magnetic moments
[find] --------------------------------------------------------------------------------
[find] total charge          : 35.000000
[find] 
[find] Energy
[find] --------------------------------------------------------------------------------
[find] valence_eval_sum               :     -15.77982895
[find] <rho|V^{XC}>                   :     -30.66804689
[find] <rho|E^{XC}>                   :     -24.91541721
[find] <mag|B^{XC}>                   :       0.00000000
[find] <rho|V^{H}>                    :      91.02425336
[find] one-electron contribution      :     -75.96170295 (Ha),    -151.92340589 (Ry)
[find] hartree contribution           :      45.51212668
[find] xc contribution                :     -24.91541721
[find] ewald contribution             :    -107.69851775
[find] PAW contribution               :      -9.51773446
[find] smearing (-TS)                 :      -0.08593684
[find] SCF correction                 :       0.51317285
[find] Total energy                   :    -172.15400968 (Ha),    -344.30801936 (Ry)
[find] 
[find] band gap (eV)                  :       0.00000000
[find] Efermi                         :       0.39836077
[find] 
[find] iteration : 3, RMS : 1.785356475553e-01, energy difference : -2.777560801186e-02
[find] 
[find] +------------------------------+
[find] | SCF iteration   4 out of 100|
[find] +------------------------------+
[find] 
[solve] iterative solver tolerance: 9.1071e-05
[davidson] eigen-value tolerance  :     0.000091071364
[davidson] empty states tolerance :     0.000091071364
[davidson] eigen-value tolerance  :     0.000091071364
[davidson] empty states tolerance :     0.000091071364
[davidson] eigen-value tolerance  :     0.000091071364
[davidson] empty states tolerance :     0.000091071364
[davidson] eigen-value tolerance  :     0.000091071364
[davidson] empty states tolerance :     0.000091071364
[davidson] eigen-value tolerance  :     0.000091071364
[davidson] empty states tolerance :     0.000091071364
[davidson] eigen-value tolerance  :     0.000091071364
[davidson] empty states tolerance :     0.000091071364
[davidson] eigen-value tolerance  :     0.000091071364
[davidson] empty states tolerance :     0.000091071364
[davidson] eigen-value tolerance  :     0.000091071364
[davidson] empty states tolerance :     0.000091071364
[davidson] eigen-value tolerance  :     0.000091071364
[davidson] empty states tolerance :     0.000091071364
[davidson] eigen-value tolerance  :     0.000091071364
[davidson] empty states tolerance :     0.000091071364
[davidson] eigen-value tolerance  :     0.000091071364
[davidson] empty states tolerance :     0.000091071364
[davidson] eigen-value tolerance  :     0.000091071364
[davidson] empty states tolerance :     0.000091071364
[davidson] eigen-value tolerance  :     0.000091071364
[davidson] empty states tolerance :     0.000091071364
[solve] average number of iterations:     3.692308
[solve] Lowest band energies
ik :  0,    -2.244650   -1.558845   -1.190636   -1.190636   -1.190052   -0.523183   -0.523182   -0.521455   -0.334988   -0.282963
ik :  1,    -2.244347   -1.558482   -1.193588   -1.191286   -1.189492   -0.527248   -0.523992   -0.520147   -0.315779   -0.286088
ik :  2,    -2.244045   -1.558104   -1.196502   -1.191934   -1.188930   -0.531149   -0.524795   -0.518816   -0.293988   -0.289984
ik :  3,    -2.244347   -1.558488   -1.193588   -1.191286   -1.189492   -0.527241   -0.523991   -0.520184   -0.314722   -0.287252
ik :  4,    -2.244045   -1.558105   -1.195364   -1.193083   -1.188934   -0.529556   -0.526373   -0.518830   -0.294809   -0.289253
ik :  5,    -2.244044   -1.558106   -1.195364   -1.193083   -1.188934   -0.529567   -0.526369   -0.518821   -0.294972   -0.289136
ik :  6,    -2.244045   -1.558109   -1.196503   -1.191934   -1.188932   -0.531103   -0.524785   -0.518816   -0.295387   -0.288475
ik :  7,    -2.244650   -1.558854   -1.190636   -1.190636   -1.190049   -0.523184   -0.523178   -0.521662   -0.332187   -0.286199
ik :  8,    -2.244348   -1.558485   -1.193588   -1.191286   -1.189490   -0.527223   -0.523983   -0.520265   -0.313941   -0.287950
ik :  9,    -2.244045   -1.558104   -1.196502   -1.191934   -1.188931   -0.531127   -0.524793   -0.518815   -0.294781   -0.289135
ik : 10,    -2.244348   -1.558490   -1.193589   -1.191286   -1.189490   -0.527217   -0.523991   -0.520302   -0.312718   -0.289285
ik : 11,    -2.244045   -1.558109   -1.195365   -1.193083   -1.188935   -0.529544   -0.526374   -0.518842   -0.294640   -0.289378
ik : 12,    -2.244650   -1.558846   -1.190636   -1.190636   -1.190047   -0.523183   -0.523178   -0.521871   -0.328955   -0.289865
[find] 
[find] Charges and magnetic moments
[find] --------------------------------------------------------------------------------
[find] total charge          : 35.000000
[find] 
[find] Energy
[find] --------------------------------------------------------------------------------
[find] valence_eval_sum               :     -15.27008045
[find] <rho|V^{XC}>                   :     -30.73584429
[find] <rho|E^{XC}>                   :     -24.96785565
[find] <mag|B^{XC}>                   :       0.00000000
[find] <rho|V^{H}>                    :      91.35710333
[find] one-electron contribution      :     -75.72300895 (Ha),    -151.44601790 (Ry)
[find] hartree contribution           :      45.67855166
[find] xc contribution                :     -24.96785565
[find] ewald contribution             :    -107.69851775
[find] PAW contribution               :      -9.51412326
[find] smearing (-TS)                 :      -0.08524586
[find] SCF correction                 :       0.15716342
[find] Total energy                   :    -172.15303639 (Ha),    -344.30607279 (Ry)
[find] 
[find] band gap (eV)                  :       0.00000000
[find] Efermi                         :       0.41197283
[find] 
[find] iteration : 4, RMS : 1.276320300899e-01, energy difference : 9.732836991532e-04
[find] 
[find] +------------------------------+
[find] | SCF iteration   5 out of 100|
[find] +------------------------------+
[find] 
[solve] iterative solver tolerance: 4.6543e-05
[davidson] eigen-value tolerance  :     0.000046542672
[davidson] empty states tolerance :     0.000046542672
[davidson] eigen-value tolerance  :     0.000046542672
[davidson] empty states tolerance :     0.000046542672
[davidson] eigen-value tolerance  :     0.000046542672
[davidson] empty states tolerance :     0.000046542672
[davidson] eigen-value tolerance  :     0.000046542672
[davidson] empty states tolerance :     0.000046542672
[davidson] eigen-value tolerance  :     0.000046542672
[davidson] empty states tolerance :     0.000046542672
[davidson] eigen-value tolerance  :     0.000046542672
[davidson] empty states tolerance :     0.000046542672
[davidson] eigen-value tolerance  :     0.000046542672
[davidson] empty states tolerance :     0.000046542672
[davidson] eigen-value tolerance  :     0.000046542672
[davidson] empty states tolerance :     0.000046542672
[davidson] eigen-value tolerance  :     0.000046542672
[davidson] empty states tolerance :     0.000046542672
[davidson] eigen-value tolerance  :     0.000046542672
[davidson] empty states tolerance :     0.000046542672
[davidson] eigen-value tolerance  :     0.000046542672
[davidson] empty states tolerance :     0.000046542672
[davidson] eigen-value tolerance  :     0.000046542672
[davidson] empty states tolerance :     0.000046542672
[davidson] eigen-value tolerance  :     0.000046542672
[davidson] empty states tolerance :     0.000046542672
[solve] average number of iterations:     2.615385
[solve] Lowest band energies
ik :  0,    -2.257494   -1.520090   -1.203560   -1.203560   -1.201419   -0.490972   -0.488714   -0.488714   -0.334002   -0.281049
ik :  1,    -2.257197   -1.519705   -1.206444   -1.204198   -1.200875   -0.493198   -0.489572   -0.489416   -0.314579   -0.284495
ik :  2,    -2.256899   -1.519305   -1.209293   -1.204834   -1.200329   -0.497441   -0.490427   -0.487826   -0.292494   -0.288833
ik :  3,    -2.257197   -1.519711   -1.206445   -1.204198   -1.200875   -0.493195   -0.489571   -0.489458   -0.313421   -0.285749
ik :  4,    -2.256899   -1.519306   -1.208183   -1.205955   -1.200333   -0.495680   -0.492173   -0.487849   -0.293511   -0.287901
ik :  5,    -2.256899   -1.519307   -1.208183   -1.205955   -1.200333   -0.495696   -0.492175   -0.487831   -0.293619   -0.287842
ik :  6,    -2.256899   -1.519310   -1.209295   -1.204834   -1.200330   -0.497381   -0.490424   -0.487825   -0.294268   -0.286951
ik :  7,    -2.257494   -1.520099   -1.203560   -1.203560   -1.201417   -0.491279   -0.488715   -0.488714   -0.330909   -0.284482
ik :  8,    -2.257197   -1.519707   -1.206445   -1.204198   -1.200873   -0.493157   -0.489588   -0.489572   -0.312670   -0.286377
ik :  9,    -2.256899   -1.519306   -1.209294   -1.204834   -1.200330   -0.497411   -0.490425   -0.487826   -0.293528   -0.287746
ik : 10,    -2.257197   -1.519713   -1.206445   -1.204198   -1.200873   -0.493155   -0.489630   -0.489571   -0.311323   -0.287820
ik : 11,    -2.256899   -1.519310   -1.208184   -1.205955   -1.200333   -0.495663   -0.492172   -0.487867   -0.293401   -0.287962
ik : 12,    -2.257494   -1.520092   -1.203560   -1.203560   -1.201414   -0.491583   -0.488715   -0.488714   -0.327311   -0.288414
[find] 
[find] Charges and magnetic moments
[find] --------------------------------------------------------------------------------
[find] total charge          : 35.000000
[find] 
[find] Energy
[find] --------------------------------------------------------------------------------
[find] valence_eval_sum               :     -15.11478703
[find] <rho|V^{XC}>                   :     -30.73739073
[find] <rho|E^{XC}>                   :     -24.96911647
[find] <mag|B^{XC}>                   :       0.00000000
[find] <rho|V^{H}>                    :      91.36220860
[find] one-electron contribution      :     -75.57096411 (Ha),    -151.14192822 (Ry)
[find] hartree contribution           :      45.68110430
[find] xc contribution                :     -24.96911647
[find] ewald contribution             :    -107.69851775
[find] PAW contribution               :      -9.51392709
[find] smearing (-TS)                 :      -0.08491817
[find] SCF correction                 :       0.00195864
[find] Total energy                   :    -172.15438065 (Ha),    -344.30876130 (Ry)
[find] 
[find] band gap (eV)                  :       0.00000000
[find] Efermi                         :       0.40275651
[find] 
[find] iteration : 5, RMS : 2.961095631233e-02, energy difference : -1.344255924636e-03
[find] 
[find] +------------------------------+
[find] | SCF iteration   6 out of 100|
[find] +------------------------------+
[find] 
[solve] iterative solver tolerance: 2.5052e-06
[davidson] eigen-value tolerance  :     0.000002505168
[davidson] empty states tolerance :     0.000002505168
[davidson] eigen-value tolerance  :     0.000002505168
[davidson] empty states tolerance :     0.000002505168
[davidson] eigen-value tolerance  :     0.000002505168
[davidson] empty states tolerance :     0.000002505168
[davidson] eigen-value tolerance  :     0.000002505168
[davidson] empty states tolerance :     0.000002505168
[davidson] eigen-value tolerance  :     0.000002505168
[davidson] empty states tolerance :     0.000002505168
[davidson] eigen-value tolerance  :     0.000002505168
[davidson] empty states tolerance :     0.000002505168
[davidson] eigen-value tolerance  :     0.000002505168
[davidson] empty states tolerance :     0.000002505168
[davidson] eigen-value tolerance  :     0.000002505168
[davidson] empty states tolerance :     0.000002505168
[davidson] eigen-value tolerance  :     0.000002505168
[davidson] empty states tolerance :     0.000002505168
[davidson] eigen-value tolerance  :     0.000002505168
[davidson] empty states tolerance :     0.000002505168
[davidson] eigen-value tolerance  :     0.000002505168
[davidson] empty states tolerance :     0.000002505168
[davidson] eigen-value tolerance  :     0.000002505168
[davidson] empty states tolerance :     0.000002505168
[davidson] eigen-value tolerance  :     0.000002505168
[davidson] empty states tolerance :     0.000002505168
[solve] average number of iterations:     6.538462
[solve] Lowest band energies
ik :  0,    -2.256993   -1.516231   -1.202990   -1.202990   -1.201447   -0.487458   -0.484501   -0.484501   -0.336461   -0.283405
ik :  1,    -2.256694   -1.515845   -1.205894   -1.203631   -1.200900   -0.489030   -0.485862   -0.485362   -0.317052   -0.286947
ik :  2,    -2.256395   -1.515444   -1.208761   -1.204271   -1.200350   -0.493305   -0.486221   -0.484231   -0.295005   -0.291390
ik :  3,    -2.256694   -1.515851   -1.205894   -1.203631   -1.200900   -0.489032   -0.485904   -0.485362   -0.315884   -0.288205
ik :  4,    -2.256395   -1.515446   -1.207643   -1.205400   -1.200354   -0.491523   -0.487986   -0.484255   -0.296044   -0.290432
ik :  5,    -2.256395   -1.515447   -1.207642   -1.205400   -1.200354   -0.491540   -0.487987   -0.484236   -0.296138   -0.290387
ik :  6,    -2.256395   -1.515450   -1.208762   -1.204271   -1.200352   -0.493242   -0.486217   -0.484231   -0.296837   -0.289452
ik :  7,    -2.256993   -1.516239   -1.202990   -1.202990   -1.201445   -0.487789   -0.484502   -0.484502   -0.333337   -0.286834
ik :  8,    -2.256694   -1.515848   -1.205894   -1.203631   -1.200898   -0.488986   -0.486046   -0.485362   -0.315150   -0.288807
ik :  9,    -2.256395   -1.515445   -1.208761   -1.204271   -1.200351   -0.493273   -0.486219   -0.484231   -0.296076   -0.290266
ik : 10,    -2.256694   -1.515854   -1.205894   -1.203631   -1.200898   -0.488987   -0.486088   -0.485362   -0.313795   -0.290253
ik : 11,    -2.256395   -1.515449   -1.207643   -1.205400   -1.200354   -0.491505   -0.487985   -0.484274   -0.295949   -0.290478
ik : 12,    -2.256993   -1.516233   -1.202990   -1.202990   -1.201442   -0.488115   -0.484503   -0.484502   -0.329706   -0.290765
[find] 
[find] Charges and magnetic moments
[find] --------------------------------------------------------------------------------
[find] total charge          : 35.000000
[find] 
[find] Energy
[find] --------------------------------------------------------------------------------
[find] valence_eval_sum               :     -15.11294501
[find] <rho|V^{XC}>                   :     -30.73809943
[find] <rho|E^{XC}>                   :     -24.96961393
[find] <mag|B^{XC}>                   :       0.00000000
[find] <rho|V^{H}>                    :      91.37309261
[find] one-electron contribution      :     -75.57934482 (Ha),    -151.15868963 (Ry)
[find] hartree contribution           :      45.68654630
[find] xc contribution                :     -24.96961393
[find] ewald contribution             :    -107.69851775
[find] PAW contribution               :      -9.51383311
[find] smearing (-TS)                 :      -0.08493412
[find] SCF correction                 :       0.00518683
[find] Total energy                   :    -172.15451059 (Ha),    -344.30902119 (Ry)
[find] 
[find] band gap (eV)                  :       0.00000000
[find] Efermi                         :       0.40257751
[find] 
[find] iteration : 6, RMS : 4.878886098935e-03, energy difference : -1.299447947076e-04
[find] 
[find] +------------------------------+
[find] | SCF iteration   7 out of 100|
[find] +------------------------------+
[find] 
[solve] iterative solver tolerance: 6.8010e-08
[davidson] eigen-value tolerance  :     0.000000068010
[davidson] empty states tolerance :     0.000000068010
[davidson] eigen-value tolerance  :     0.000000068010
[davidson] empty states tolerance :     0.000000068010
[davidson] eigen-value tolerance  :     0.000000068010
[davidson] empty states tolerance :     0.000000068010
[davidson] eigen-value tolerance  :     0.000000068010
[davidson] empty states tolerance :     0.000000068010
[davidson] eigen-value tolerance  :     0.000000068010
[davidson] empty states tolerance :     0.000000068010
[davidson] eigen-value tolerance  :     0.000000068010
[davidson] empty states tolerance :     0.000000068010
[davidson] eigen-value tolerance  :     0.000000068010
[davidson] empty states tolerance :     0.000000068010
[davidson] eigen-value tolerance  :     0.000000068010
[davidson] empty states tolerance :     0.000000068010
[davidson] eigen-value tolerance  :     0.000000068010
[davidson] empty states tolerance :     0.000000068010
[davidson] eigen-value tolerance  :     0.000000068010
[davidson] empty states tolerance :     0.000000068010
[davidson] eigen-value tolerance  :     0.000000068010
[davidson] empty states tolerance :     0.000000068010
[davidson] eigen-value tolerance  :     0.000000068010
[davidson] empty states tolerance :     0.000000068010
[davidson] eigen-value tolerance  :     0.000000068010
[davidson] empty states tolerance :     0.000000068010
[solve] average number of iterations:     4.923077
[solve] Lowest band energies
ik :  0,    -2.256773   -1.515309   -1.202827   -1.202827   -1.201120   -0.486624   -0.483456   -0.483456   -0.336799   -0.283793
ik :  1,    -2.256474   -1.514924   -1.205731   -1.203468   -1.200572   -0.488000   -0.485017   -0.484319   -0.317405   -0.287342
ik :  2,    -2.256175   -1.514522   -1.208598   -1.204108   -1.200021   -0.492285   -0.485178   -0.483375   -0.295385   -0.291791
ik :  3,    -2.256474   -1.514929   -1.205731   -1.203468   -1.200572   -0.488003   -0.485059   -0.484318   -0.316233   -0.288603
ik :  4,    -2.256175   -1.514524   -1.207480   -1.205237   -1.200025   -0.490496   -0.486950   -0.483399   -0.296428   -0.290829
ik :  5,    -2.256175   -1.514525   -1.207480   -1.205237   -1.200025   -0.490514   -0.486951   -0.483380   -0.296518   -0.290787
ik :  6,    -2.256175   -1.514528   -1.208600   -1.204108   -1.200023   -0.492221   -0.485175   -0.483375   -0.297236   -0.289836
ik :  7,    -2.256773   -1.515318   -1.202827   -1.202827   -1.201117   -0.486959   -0.483457   -0.483457   -0.333663   -0.287226
ik :  8,    -2.256474   -1.514926   -1.205731   -1.203468   -1.200570   -0.487955   -0.485203   -0.484319   -0.315503   -0.289200
ik :  9,    -2.256175   -1.514523   -1.208599   -1.204108   -1.200022   -0.492253   -0.485177   -0.483375   -0.296469   -0.290655
ik : 10,    -2.256474   -1.514932   -1.205732   -1.203468   -1.200570   -0.487957   -0.485245   -0.484318   -0.314142   -0.290650
ik : 11,    -2.256175   -1.514527   -1.207481   -1.205237   -1.200025   -0.490479   -0.486949   -0.483419   -0.296336   -0.290872
ik : 12,    -2.256773   -1.515311   -1.202827   -1.202827   -1.201115   -0.487291   -0.483458   -0.483458   -0.330016   -0.291166
[find] 
[find] Charges and magnetic moments
[find] --------------------------------------------------------------------------------
[find] total charge          : 35.000000
[find] 
[find] Energy
[find] --------------------------------------------------------------------------------
[find] valence_eval_sum               :     -15.10774432
[find] <rho|V^{XC}>                   :     -30.73967557
[find] <rho|E^{XC}>                   :     -24.97086665
[find] <mag|B^{XC}>                   :       0.00000000
[find] <rho|V^{H}>                    :      91.38450966
[find] one-electron contribution      :     -75.58416968 (Ha),    -151.16833936 (Ry)
[find] hartree contribution           :      45.69225483
[find] xc contribution                :     -24.97086665
[find] ewald contribution             :    -107.69851775
[find] PAW contribution               :      -9.51382315
[find] smearing (-TS)                 :      -0.08495795
[find] SCF correction                 :       0.00556456
[find] Total energy                   :    -172.15451579 (Ha),    -344.30903159 (Ry)
[find] 
[find] band gap (eV)                  :       0.00000000
[find] Efermi                         :       0.40271337
[find] 
[find] iteration : 7, RMS : 5.522028570452e-03, energy difference : -5.199395218369e-06
[find] 
[find] +------------------------------+
[find] | SCF iteration   8 out of 100|
[find] +------------------------------+
[find] 
[solve] iterative solver tolerance: 6.4610e-08
[davidson] eigen-value tolerance  :     0.000000064610
[davidson] empty states tolerance :     0.000000064610
[davidson] eigen-value tolerance  :     0.000000064610
[davidson] empty states tolerance :     0.000000064610
[davidson] eigen-value tolerance  :     0.000000064610
[davidson] empty states tolerance :     0.000000064610
[davidson] eigen-value tolerance  :     0.000000064610
[davidson] empty states tolerance :     0.000000064610
[davidson] eigen-value tolerance  :     0.000000064610
[davidson] empty states tolerance :     0.000000064610
[davidson] eigen-value tolerance  :     0.000000064610
[davidson] empty states tolerance :     0.000000064610
[davidson] eigen-value tolerance  :     0.000000064610
[davidson] empty states tolerance :     0.000000064610
[davidson] eigen-value tolerance  :     0.000000064610
[davidson] empty states tolerance :     0.000000064610
[davidson] eigen-value tolerance  :     0.000000064610
[davidson] empty states tolerance :     0.000000064610
[davidson] eigen-value tolerance  :     0.000000064610
[davidson] empty states tolerance :     0.000000064610
[davidson] eigen-value tolerance  :     0.000000064610
[davidson] empty states tolerance :     0.000000064610
[davidson] eigen-value tolerance  :     0.000000064610
[davidson] empty states tolerance :     0.000000064610
[davidson] eigen-value tolerance  :     0.000000064610
[davidson] empty states tolerance :     0.000000064610
[solve] average number of iterations:     1.692308
[solve] Lowest band energies
ik :  0,    -2.256684   -1.515618   -1.202742   -1.202742   -1.201004   -0.486872   -0.483721   -0.483721   -0.336338   -0.283327
ik :  1,    -2.256385   -1.515232   -1.205644   -1.203383   -1.200456   -0.488261   -0.485270   -0.484583   -0.316936   -0.286865
ik :  2,    -2.256086   -1.514831   -1.208510   -1.204022   -1.199907   -0.492543   -0.485443   -0.483634   -0.294903   -0.291302
ik :  3,    -2.256385   -1.515238   -1.205644   -1.203383   -1.200456   -0.488263   -0.485312   -0.484583   -0.315765   -0.288125
ik :  4,    -2.256086   -1.514832   -1.207393   -1.205151   -1.199911   -0.490756   -0.487213   -0.483658   -0.295944   -0.290342
ik :  5,    -2.256086   -1.514834   -1.207392   -1.205151   -1.199910   -0.490773   -0.487214   -0.483638   -0.296036   -0.290299
ik :  6,    -2.256086   -1.514837   -1.208511   -1.204022   -1.199908   -0.492479   -0.485439   -0.483633   -0.296748   -0.289352
ik :  7,    -2.256684   -1.515627   -1.202742   -1.202742   -1.201002   -0.487205   -0.483722   -0.483722   -0.333206   -0.286761
ik :  8,    -2.256385   -1.515235   -1.205645   -1.203383   -1.200455   -0.488215   -0.485455   -0.484584   -0.315033   -0.288725
ik :  9,    -2.256086   -1.514832   -1.208511   -1.204022   -1.199907   -0.492511   -0.485441   -0.483633   -0.295983   -0.290170
ik : 10,    -2.256385   -1.515241   -1.205645   -1.203383   -1.200455   -0.488218   -0.485497   -0.484583   -0.313673   -0.290175
ik : 11,    -2.256086   -1.514836   -1.207393   -1.205150   -1.199911   -0.490738   -0.487211   -0.483677   -0.295850   -0.290387
ik : 12,    -2.256684   -1.515620   -1.202742   -1.202742   -1.200999   -0.487534   -0.483723   -0.483723   -0.329563   -0.290700
[find] 
[find] Charges and magnetic moments
[find] --------------------------------------------------------------------------------
[find] total charge          : 35.000000
[find] 
[find] Energy
[find] --------------------------------------------------------------------------------
[find] valence_eval_sum               :     -15.10219915
[find] <rho|V^{XC}>                   :     -30.74038381
[find] <rho|E^{XC}>                   :     -24.97141377
[find] <mag|B^{XC}>                   :       0.00000000
[find] <rho|V^{H}>                    :      91.38897426
[find] one-electron contribution      :     -75.58242903 (Ha),    -151.16485806 (Ry)
[find] hartree contribution           :      45.69448713
[find] xc contribution                :     -24.97141377
[find] ewald contribution             :    -107.69851775
[find] PAW contribution               :      -9.51379408
[find] smearing (-TS)                 :      -0.08494014
[find] SCF correction                 :       0.00209044
[find] Total energy                   :    -172.15451720 (Ha),    -344.30903439 (Ry)
[find] 
[find] band gap (eV)                  :       0.00000000
[find] Efermi                         :       0.40285926
[find] 
[find] iteration : 8, RMS : 1.325675017509e-03, energy difference : -1.401567089943e-06
[find] 
[find] +------------------------------+
[find] | SCF iteration   9 out of 100|
[find] +------------------------------+
[find] 
[solve] iterative solver tolerance: 5.0212e-09
[davidson] eigen-value tolerance  :     0.000000005021
[davidson] empty states tolerance :     0.000000005021
[davidson] eigen-value tolerance  :     0.000000005021
[davidson] empty states tolerance :     0.000000005021
[davidson] eigen-value tolerance  :     0.000000005021
[davidson] empty states tolerance :     0.000000005021
[davidson] eigen-value tolerance  :     0.000000005021
[davidson] empty states tolerance :     0.000000005021
[davidson] eigen-value tolerance  :     0.000000005021
[davidson] empty states tolerance :     0.000000005021
[davidson] eigen-value tolerance  :     0.000000005021
[davidson] empty states tolerance :     0.000000005021
[davidson] eigen-value tolerance  :     0.000000005021
[davidson] empty states tolerance :     0.000000005021
[davidson] eigen-value tolerance  :     0.000000005021
[davidson] empty states tolerance :     0.000000005021
[davidson] eigen-value tolerance  :     0.000000005021
[davidson] empty states tolerance :     0.000000005021
[davidson] eigen-value tolerance  :     0.000000005021
[davidson] empty states tolerance :     0.000000005021
[davidson] eigen-value tolerance  :     0.000000005021
[davidson] empty states tolerance :     0.000000005021
[davidson] eigen-value tolerance  :     0.000000005021
[davidson] empty states tolerance :     0.000000005021
[davidson] eigen-value tolerance  :     0.000000005021
[davidson] empty states tolerance :     0.000000005021
[solve] average number of iterations:     3.384615
[solve] Lowest band energies
ik :  0,    -2.256720   -1.515418   -1.202773   -1.202773   -1.201040   -0.486720   -0.483551   -0.483551   -0.336265   -0.283249
ik :  1,    -2.256421   -1.515033   -1.205675   -1.203414   -1.200493   -0.488093   -0.485117   -0.484413   -0.316861   -0.286788
ik :  2,    -2.256122   -1.514631   -1.208540   -1.204053   -1.199943   -0.492376   -0.485273   -0.483479   -0.294826   -0.291226
ik :  3,    -2.256421   -1.515038   -1.205675   -1.203414   -1.200493   -0.488095   -0.485158   -0.484413   -0.315689   -0.288049
ik :  4,    -2.256122   -1.514633   -1.207423   -1.205181   -1.199947   -0.490589   -0.487044   -0.483503   -0.295867   -0.290265
ik :  5,    -2.256122   -1.514634   -1.207423   -1.205181   -1.199947   -0.490606   -0.487045   -0.483483   -0.295958   -0.290223
ik :  6,    -2.256122   -1.514637   -1.208542   -1.204053   -1.199945   -0.492312   -0.485270   -0.483478   -0.296672   -0.289274
ik :  7,    -2.256720   -1.515427   -1.202773   -1.202773   -1.201038   -0.487053   -0.483552   -0.483552   -0.333130   -0.286685
ik :  8,    -2.256421   -1.515035   -1.205675   -1.203414   -1.200491   -0.488047   -0.485302   -0.484414   -0.314957   -0.288649
ik :  9,    -2.256122   -1.514632   -1.208541   -1.204053   -1.199944   -0.492344   -0.485271   -0.483478   -0.295906   -0.290092
ik : 10,    -2.256421   -1.515041   -1.205676   -1.203414   -1.200491   -0.488050   -0.485343   -0.484413   -0.313596   -0.290099
ik : 11,    -2.256122   -1.514636   -1.207424   -1.205181   -1.199947   -0.490571   -0.487043   -0.483522   -0.295774   -0.290310
ik : 12,    -2.256720   -1.515420   -1.202773   -1.202773   -1.201035   -0.487383   -0.483552   -0.483552   -0.329485   -0.290627
[find] 
[find] Charges and magnetic moments
[find] --------------------------------------------------------------------------------
[find] total charge          : 35.000000
[find] 
[find] Energy
[find] --------------------------------------------------------------------------------
[find] valence_eval_sum               :     -15.10011321
[find] <rho|V^{XC}>                   :     -30.74037940
[find] <rho|E^{XC}>                   :     -24.97140825
[find] <mag|B^{XC}>                   :       0.00000000
[find] <rho|V^{H}>                    :      91.38897346
[find] one-electron contribution      :     -75.58035707 (Ha),    -151.16071414 (Ry)
[find] hartree contribution           :      45.69448673
[find] xc contribution                :     -24.97140825
[find] ewald contribution             :    -107.69851775
[find] PAW contribution               :      -9.51378681
[find] smearing (-TS)                 :      -0.08493584
[find] SCF correction                 :       0.00000158
[find] Total energy                   :    -172.15451741 (Ha),    -344.30903481 (Ry)
[find] 
[find] band gap (eV)                  :       0.00000000
[find] Efermi                         :       0.40284774
[find] 
[find] iteration : 9, RMS : 1.751748677358e-04, energy difference : -2.106109207034e-07
[find] 
[find] +------------------------------+
[find] | SCF iteration  10 out of 100|
[find] +------------------------------+
[find] 
[solve] iterative solver tolerance: 8.7675e-11
[davidson] eigen-value tolerance  :     0.000000000088
[davidson] empty states tolerance :     0.000000000088
[davidson] eigen-value tolerance  :     0.000000000088
[davidson] empty states tolerance :     0.000000000088
[davidson] eigen-value tolerance  :     0.000000000088
[davidson] empty states tolerance :     0.000000000088
[davidson] eigen-value tolerance  :     0.000000000088
[davidson] empty states tolerance :     0.000000000088
[davidson] eigen-value tolerance  :     0.000000000088
[davidson] empty states tolerance :     0.000000000088
[davidson] eigen-value tolerance  :     0.000000000088
[davidson] empty states tolerance :     0.000000000088
[davidson] eigen-value tolerance  :     0.000000000088
[davidson] empty states tolerance :     0.000000000088
[davidson] eigen-value tolerance  :     0.000000000088
[davidson] empty states tolerance :     0.000000000088
[davidson] eigen-value tolerance  :     0.000000000088
[davidson] empty states tolerance :     0.000000000088
[davidson] eigen-value tolerance  :     0.000000000088
[davidson] empty states tolerance :     0.000000000088
[davidson] eigen-value tolerance  :     0.000000000088
[davidson] empty states tolerance :     0.000000000088
[davidson] eigen-value tolerance  :     0.000000000088
[davidson] empty states tolerance :     0.000000000088
[davidson] eigen-value tolerance  :     0.000000000088
[davidson] empty states tolerance :     0.000000000088
[solve] average number of iterations:     6.846154
[solve] Lowest band energies
ik :  0,    -2.256721   -1.515416   -1.202774   -1.202774   -1.201040   -0.486718   -0.483554   -0.483554   -0.336263   -0.283249
ik :  1,    -2.256423   -1.515030   -1.205676   -1.203415   -1.200492   -0.488096   -0.485115   -0.484417   -0.316860   -0.286787
ik :  2,    -2.256123   -1.514629   -1.208542   -1.204055   -1.199942   -0.492380   -0.485277   -0.483477   -0.294825   -0.291225
ik :  3,    -2.256423   -1.515036   -1.205677   -1.203416   -1.200492   -0.488098   -0.485157   -0.484416   -0.315688   -0.288048
ik :  4,    -2.256123   -1.514630   -1.207425   -1.205183   -1.199946   -0.490592   -0.487047   -0.483501   -0.295866   -0.290265
ik :  5,    -2.256123   -1.514632   -1.207424   -1.205183   -1.199946   -0.490610   -0.487049   -0.483482   -0.295958   -0.290222
ik :  6,    -2.256123   -1.514635   -1.208543   -1.204055   -1.199944   -0.492316   -0.485273   -0.483477   -0.296671   -0.289274
ik :  7,    -2.256721   -1.515425   -1.202774   -1.202774   -1.201037   -0.487052   -0.483555   -0.483555   -0.333129   -0.286684
ik :  8,    -2.256423   -1.515032   -1.205677   -1.203415   -1.200490   -0.488051   -0.485300   -0.484417   -0.314956   -0.288648
ik :  9,    -2.256123   -1.514630   -1.208542   -1.204055   -1.199943   -0.492348   -0.485275   -0.483477   -0.295906   -0.290092
ik : 10,    -2.256423   -1.515039   -1.205677   -1.203416   -1.200490   -0.488053   -0.485342   -0.484416   -0.313595   -0.290099
ik : 11,    -2.256123   -1.514634   -1.207425   -1.205183   -1.199946   -0.490574   -0.487046   -0.483521   -0.295773   -0.290310
ik : 12,    -2.256721   -1.515418   -1.202774   -1.202774   -1.201034   -0.487381   -0.483556   -0.483556   -0.329484   -0.290626
[find] 
[find] Charges and magnetic moments
[find] --------------------------------------------------------------------------------
[find] total charge          : 35.000000
[find] 
[find] Energy
[find] --------------------------------------------------------------------------------
[find] valence_eval_sum               :     -15.10011129
[find] <rho|V^{XC}>                   :     -30.74038479
[find] <rho|E^{XC}>                   :     -24.97141237
[find] <mag|B^{XC}>                   :       0.00000000
[find] <rho|V^{H}>                    :      91.38914051
[find] one-electron contribution      :     -75.58052404 (Ha),    -151.16104808 (Ry)
[find] hartree contribution           :      45.69457026
[find] xc contribution                :     -24.97141237
[find] ewald contribution             :    -107.69851775
[find] PAW contribution               :      -9.51378453
[find] smearing (-TS)                 :      -0.08493619
[find] SCF correction                 :       0.00008721
[find] Total energy                   :    -172.15451742 (Ha),    -344.30903484 (Ry)
[find] 
[find] band gap (eV)                  :       0.00000000
[find] Efermi                         :       0.40284798
[find] 
[find] iteration : 10, RMS : 1.002458254957e-04, energy difference : -1.369548385810e-08
[find] 
[find] +------------------------------+
[find] | SCF iteration  11 out of 100|
[find] +------------------------------+
[find] 
[solve] iterative solver tolerance: 2.8712e-11
[davidson] eigen-value tolerance  :     0.000000000029
[davidson] empty states tolerance :     0.000000000029
[davidson] eigen-value tolerance  :     0.000000000029
[davidson] empty states tolerance :     0.000000000029
[davidson] eigen-value tolerance  :     0.000000000029
[davidson] empty states tolerance :     0.000000000029
[davidson] eigen-value tolerance  :     0.000000000029
[davidson] empty states tolerance :     0.000000000029
[davidson] eigen-value tolerance  :     0.000000000029
[davidson] empty states tolerance :     0.000000000029
[davidson] eigen-value tolerance  :     0.000000000029
[davidson] empty states tolerance :     0.000000000029
[davidson] eigen-value tolerance  :     0.000000000029
[davidson] empty states tolerance :     0.000000000029
[davidson] eigen-value tolerance  :     0.000000000029
[davidson] empty states tolerance :     0.000000000029
[davidson] eigen-value tolerance  :     0.000000000029
[davidson] empty states tolerance :     0.000000000029
[davidson] eigen-value tolerance  :     0.000000000029
[...]
 sirius::Density::get_magnetisation                                127       4.42 s        2.11     100.00      32.23 ms      30.54 ms      66.02 ms
 sirius::Density::compute_atomic_mag_mom                           127       4.42 s        2.11     100.00      32.22 ms      30.53 ms      66.01 ms
 sirius::Stress|us                                                   8       4.33 s        2.07     100.00     535.59 ms     440.85 ms     697.70 ms
 sirius::divergence                                                254       4.25 s        2.03     100.00      16.64 ms      15.75 ms      20.61 ms
 sirius::Potential::generate_D_operator_matrix                     127       4.20 s        2.01     100.00      32.93 ms      29.65 ms      39.15 ms
 sddk::wf_trans                                                  18134       3.97 s        1.90     100.00      61.07 us       5.01 us       8.40 ms
 sddk::wf_trans|pw                                               26390       3.94 s        1.88     100.00      47.30 us       3.76 us       6.81 ms
 sirius::Band::set_subspace_mtrx                                  7694       3.89 s        1.85     100.00      92.36 us      22.98 us      12.74 ms
 sirius::Potential::poisson                                        127       3.71 s        1.77     100.00      28.98 ms      26.82 ms      38.17 ms
 forces                                                              8       3.39 s        1.62     100.00     421.44 ms     402.47 ms     443.59 ms
 init_vloc                                                           2       3.07 s        1.47     100.00       1.54 s        1.49 s        1.58 s 
 sirius::DFT_ground_state::update                                    7       3.03 s        1.45     100.00     437.89 ms     375.12 ms     479.41 ms
 sirius::Non_local_operator::apply                               14972       2.85 s        1.36     100.00      52.47 us      17.09 us       9.21 ms
 sirius::project_out_subspace                                     5731       2.84 s        1.36     100.00     109.59 us      28.95 us       8.17 ms
 sirius::Simulation_context::update                                  9       2.81 s        1.34     100.00     281.66 ms     246.77 ms     471.08 ms
 sirius::Augmentation_operator_gvec_deriv::generate_pw_coeffs       48       2.74 s        1.31     100.00      41.80 ms       8.20 ms     154.37 ms
 init_us_1                                                           2       2.64 s        1.26     100.00       1.32 s        1.31 s        1.33 s 
 sddk::wf_inner                                                  20703       2.34 s        1.12     100.00      54.71 us       4.67 us       4.20 ms
 sirius::Density::mix                                              119       2.32 s        1.11     100.00      22.48 ms       6.39 ms      26.47 ms
 sddk::wf_inner|pw                                               20703       2.29 s        1.09     100.00      52.23 us       3.90 us       4.19 ms
 sirius::Band::initialize_subspace                                  16       2.20 s        1.05     100.00     135.33 ms     127.52 ms     162.70 ms
 sirius::Band::initialize_subspace|kp                              208       2.19 s        1.05     100.00      10.38 ms       9.38 ms      13.32 ms
 Eigensolver_lapack|zheevx                                        7278       2.10 s        1.00     100.00     302.82 us      13.81 us     912.34 us
 sirius::Density::generate_rho_aug|sum                             238       1.92 s        0.92     100.00       7.97 ms       2.96 ms      14.08 ms
 sirius::symmetrize|fpw|local                                      246       1.92 s        0.91     100.00       7.98 ms       5.98 ms      11.79 ms
 sddk::Gvec_shells::remap_forward                                  246       1.80 s        0.86     100.00       7.21 ms       6.80 ms       9.98 ms
 sddk::Gvec_shells::remap_backward                                 246       1.76 s        0.84     100.00       7.02 ms       6.64 ms      10.75 ms
 sirius::Density::generate_rho_aug|gemm                            238       1.65 s        0.79     100.00       7.79 ms       2.12 ms      16.73 ms
 sirius::Stress|vloc                                                 8       1.61 s        0.77     100.00     203.34 ms     190.24 ms     207.83 ms
 sirius::K_point_set::find_band_occupancies                        119       1.53 s        0.73     100.00       6.24 ms       5.22 ms     104.26 ms
 potinit                                                             2       1.50 s        0.72     100.00     751.10 ms     594.32 ms     907.89 ms
 sirius::davidson|update_phi                                      3939       1.39 s        0.66     100.00     309.50 us       6.03 us       6.82 ms
 sirius::Beta_projectors_base::inner                             10489       1.35 s        0.64     100.00      75.14 us      20.91 us       3.67 ms
 sirius::Periodic_function::integrate                              135       1.32 s        0.63     100.00       9.72 ms       9.28 ms      11.41 ms
 sddk::orthogonalize                                              7278       1.31 s        0.62     100.00     211.17 us      31.75 us       3.94 ms
 sirius::Augmentation_operator::generate_pw_coeffs                  18       1.28 s        0.61     100.00      67.70 ms       7.76 ms     157.10 ms
 setup_sirius                                                        2       1.28 s        0.61     100.00     637.79 ms     573.10 ms     702.47 ms
 sirius::Force::calc_forces_us                                       8       1.28 s        0.61     100.00     159.36 ms     155.10 ms     162.60 ms
 newd                                                                2       1.09 s        0.52     100.00     542.82 ms     525.70 ms     559.94 ms
 sirius::Simulation_context::make_periodic_function                 58       1.02 s        0.49     100.00      17.77 ms      14.25 ms      19.45 ms
 sirius::gradient                                                  135     941.27 ms       0.45     100.00       5.67 ms       5.48 ms      20.55 ms
 sirius::Force::calc_forces_ewald                                    8     912.66 ms       0.44     100.00     113.62 ms     105.01 ms     119.97 ms
 sirius::Simulation_context::initialize                              2     870.62 ms       0.42     100.00     435.31 ms     391.40 ms     479.22 ms
 sddk::orthogonalize|transform                                    7278     856.30 ms       0.41     100.00     134.60 us      20.14 us       3.89 ms
 qe|update                                                           6     840.13 ms       0.40     100.00     138.33 ms     134.02 ms     147.67 ms
 sirius::Density::update                                            17     816.60 ms       0.39     100.00      49.15 ms      39.90 ms      52.43 ms
 sirius::Density::generate_pseudo_core_charge_density               17     800.70 ms       0.38     100.00      48.22 ms      38.70 ms      51.74 ms
 sirius::Stress|us|gemm                                            144     752.55 ms       0.36     100.00       5.16 ms       3.51 ms       7.38 ms
 sirius::Density::initial_density                                    8     730.35 ms       0.35     100.00      91.94 ms      85.51 ms      94.65 ms
 sirius::Stress|kin                                                  8     703.97 ms       0.34     100.00      88.35 ms      83.43 ms      92.34 ms
 sirius::Potential::update                                           9     660.76 ms       0.32     100.00      78.50 ms      55.16 ms      80.35 ms
 sirius::Potential::generate_local_potential                         9     646.93 ms       0.31     100.00      76.94 ms      53.61 ms      78.78 ms
 sirius::Hamiltonian_k                                            1755     583.73 ms       0.28     100.00      16.85 us      11.83 us       4.56 ms
 sirius::Local_operator::prepare_k                                1755     573.98 ms       0.27     100.00      11.53 us       8.14 us       4.55 ms
 sirius::Non_local_functor::add_k_point                            208     564.55 ms       0.27     100.00       2.91 ms       1.27 ms       6.10 ms
 sirius::Stress|nonloc                                               8     547.66 ms       0.26     100.00      67.54 ms      65.01 ms      78.37 ms
 v_of_rho                                                            2     533.77 ms       0.25     100.00     266.89 ms     197.45 ms     336.33 ms
 sirius::Density                                                    10     520.10 ms       0.25     100.00      51.89 ms      41.92 ms      56.31 ms
 v_xc                                                                2     505.96 ms       0.24     100.00     252.98 ms     186.87 ms     319.09 ms
 sirius::dot                                                       127     505.22 ms       0.24     100.00       3.41 ms       3.25 ms       8.45 ms
 sirius::Force::calc_forces_vloc                                     8     456.98 ms       0.22     100.00      60.01 ms      40.91 ms      61.01 ms
 sirius::Augmentation_operator_gvec_deriv                            8     426.84 ms       0.20     100.00      53.64 ms      51.61 ms      54.44 ms
 sirius::Density::mixer_output                                     119     350.11 ms       0.17     100.00       3.00 ms       2.36 ms       3.40 ms
 sddk::Gvec_shells                                                   9     343.47 ms       0.16     100.00      37.87 ms      36.78 ms      41.50 ms
 sddk::Gvec::find_gvec_shells                                       18     331.93 ms       0.16     100.00      17.35 ms       2.47 ms      36.00 ms
 sirius::Force::calc_forces_core                                     8     305.51 ms       0.15     100.00      36.98 ms      32.70 ms      49.11 ms
 sirius::Stress|us|phase_fac                                        16     291.92 ms       0.14     100.00      18.30 ms      16.11 ms      20.24 ms
 sirius::Force::calc_forces_scf_corr                                 8     253.80 ms       0.12     100.00      32.08 ms      24.38 ms      35.09 ms
 sirius::Density::add_k_point_contribution_dm                     1547     232.65 ms       0.11     100.00     131.60 us     105.80 us       2.95 ms
 sirius::Potential                                                   2     207.31 ms       0.10     100.00     103.66 ms      89.50 ms     117.81 ms
 sirius::Periodic_function::add                                    254     205.19 ms       0.10     100.00     793.47 us     699.34 us       3.37 ms
 sirius::Hamiltonian0                                              135     189.21 ms       0.09     100.00       1.06 ms     805.30 us      31.88 ms
 sirius::Force::calc_forces_nonloc                                   8     180.67 ms       0.09     100.00      21.68 ms      20.49 ms      30.42 ms
 sirius::Beta_projectors_base::generate                           1482     171.76 ms       0.08     100.00     108.23 us      92.15 us     403.22 us
 sirius::Radial_integrals|atomic_wfs                                 8     157.74 ms       0.08     100.00      17.64 ms       1.30 us      47.43 ms
 sirius_api::sirius_get_wave_functions                             104     143.67 ms       0.07     100.00       1.33 ms       1.24 ms       1.92 ms
 sirius::K_point::update                                           234     137.58 ms       0.07     100.00     527.22 us     373.36 us       1.75 ms
 sirius::K_point_set::initialize                                     2     137.07 ms       0.07     100.00      68.53 ms      60.20 ms      76.87 ms
 sirius::K_point::initialize                                        52     136.15 ms       0.06     100.00       2.73 ms       1.93 ms       3.77 ms
 sirius::Local_operator                                            135     135.54 ms       0.06     100.00     771.56 us     548.98 us      26.59 ms
 sirius::Beta_projectors_strain_deriv::generate_pw_coefs_t         104     133.29 ms       0.06     100.00       1.27 ms     729.04 us       1.62 ms
 sirius::Stress|ewald                                                8     127.44 ms       0.06     100.00      16.02 ms      15.45 ms      16.17 ms
 sddk::Gvec::init                                                   56     124.64 ms       0.06     100.00     385.37 us     335.71 us      48.31 ms
 sirius::Beta_projectors                                           234      90.26 ms       0.04     100.00     311.02 us     194.04 us       1.54 ms
 sirius::K_point::generate_atomic_wave_functions                   208      88.18 ms       0.04     100.00     420.11 us     334.23 us     688.36 us
 sirius::Density::mixer_input                                      119      85.96 ms       0.04     100.00     717.60 us     615.91 us     947.16 us
 sirius::K_point::generate_gkvec                                    52      83.14 ms       0.04     100.00       1.62 ms       1.27 ms       2.34 ms
 sirius::K_point_set::sync_band                                    238      80.56 ms       0.04     100.00      35.54 us      22.73 us       6.50 ms
 Eigensolver_lapack|zhegvx                                         208      76.20 ms       0.04     100.00     349.40 us     319.65 us     670.77 us
 sddk::orthogonalize|tmtrx                                        7278      75.94 ms       0.04     100.00       9.74 us       2.40 us      96.60 us
 sirius::Simulation_context::init_atoms_to_grid_idx                  9      75.85 ms       0.04     100.00       7.05 ms       6.71 ms      14.75 ms
 sirius::Density::symmetrize_density_matrix                        119      57.97 ms       0.03     100.00     462.38 us     429.90 us     806.74 us
 sirius::Beta_projectors::generate_pw_coefs_t                      234      55.29 ms       0.03     100.00     184.26 us      96.32 us       1.13 ms
 fft                                                                26      54.40 ms       0.03     100.00       2.12 ms       1.72 ms       2.56 ms
 sirius::Band::initialize_subspace|kp|wf                           208      50.61 ms       0.02     100.00     243.13 us     207.90 us     316.45 us
 sirius::Stress|har                                                  8      48.18 ms       0.02     100.00       6.03 ms       5.91 ms       6.14 ms
 qe|setlocal                                                         2      44.33 ms       0.02     100.00      22.17 ms      14.15 ms      30.18 ms
 sirius::Augmentation_operator_gvec_deriv::prepare                  16      42.95 ms       0.02     100.00       2.55 ms       1.45 ms       4.00 ms
 sirius::Stress|us|prepare                                         144      41.83 ms       0.02     100.00     298.32 us     171.93 us     508.48 us
 qe|paw_potential                                                    2      38.83 ms       0.02     100.00      19.41 ms      18.61 ms      20.21 ms
 PAW_pot                                                             2      38.76 ms       0.02     100.00      19.38 ms      18.59 ms      20.17 ms
 sirius::Q_operator::initialize                                    135      32.37 ms       0.02     100.00     166.85 us     154.60 us       2.67 ms
 sirius::Unit_cell::update                                          11      27.77 ms       0.01     100.00       2.42 ms       2.28 ms       3.06 ms
 v_h                                                                 2      27.69 ms       0.01     100.00      13.84 ms      10.50 ms      17.18 ms
 qe|punch                                                            1      26.75 ms       0.01     100.00      26.75 ms      26.75 ms      26.75 ms
 sirius::Unit_cell::get_symmetry                                    11      26.12 ms       0.01     100.00       2.26 ms       2.15 ms       2.87 ms
 sirius::Crystal_symmetry                                           11      25.57 ms       0.01     100.00       2.20 ms       2.13 ms       2.84 ms
 qe|set_vrs                                                          2      24.69 ms       0.01     100.00      12.34 ms       9.63 ms      15.05 ms
 sirius::Crystal_symmetry|spg                                       11      22.35 ms       0.01     100.00       1.92 ms       1.84 ms       2.52 ms
 sirius::D_operator::initialize                                    135      18.77 ms       0.01     100.00      87.53 us      80.04 us       2.63 ms
 sddk::matrix_storage::remap_forward                              9033      18.56 ms       0.01     100.00       1.73 us     660.00 ns     215.98 us
 interpolate                                                         2      13.72 ms       0.01     100.00       6.86 ms       6.58 ms       7.13 ms
 sirius::Unit_cell::initialize                                       2       6.33 ms       0.00     100.00       3.17 ms       2.75 ms       3.58 ms
 sddk::wf_inner|scale_back                                       20703       5.61 ms       0.00     100.00     156.00 ns      49.00 ns      27.21 us
 sddk::matrix_storage::remap_backward                             7486       5.17 ms       0.00     100.00     578.00 ns      96.00 ns      51.97 us
 qe|setup                                                            1       4.35 ms       0.00     100.00       4.35 ms       4.35 ms       4.35 ms
 sddk::wf_inner|scale                                            20703       3.86 ms       0.00     100.00      78.00 ns      42.00 ns      22.73 us
 sirius::Unit_cell::find_nearest_neighbours                         11       1.56 ms       0.00     100.00     152.41 us      53.18 us     180.92 us
 sirius::Atom_type::init                                             6     925.40 us       0.00     100.00     149.82 us     116.95 us     228.35 us
 ffts                                                                2     703.84 us       0.00     100.00     351.92 us     309.21 us     394.63 us
 sirius::Force::symmetrize                                          48     683.46 us       0.00     100.00      14.04 us       5.83 us      31.41 us
 sirius::Non_local_operator                                        270     468.55 us       0.00     100.00       1.24 us     267.00 ns      34.88 us
 sirius::Beta_projectors_base::prepare                             208     345.25 us       0.00     100.00       1.15 us     444.00 ns      23.61 us
 sirius::find_sym_atom                                             264     243.19 us       0.00     100.00     562.50 ns     440.00 ns      12.95 us
 sirius::K_point::K_point                                           52     184.76 us       0.00     100.00       2.97 us       2.43 us      18.09 us
 sirius::Crystal_symmetry|mag                                       11     169.75 us       0.00     100.00      14.39 us       9.78 us      27.51 us
 sirius::Simulation_context::init_comm                               2     133.00 us       0.00     100.00      66.50 us      57.14 us      75.85 us
 qe|paw_becsum                                                       2     131.01 us       0.00     100.00      65.50 us      61.88 us      69.12 us
 sirius::initialize                                                  1     115.60 us       0.00     100.00     115.60 us     115.60 us     115.60 us
 PAW_symme                                                           2      84.08 us       0.00     100.00      42.04 us      39.74 us      44.34 us
 sirius::Beta_projectors_base::dismiss                             208      50.41 us       0.00     100.00      62.00 ns      40.00 ns      17.56 us
 sirius::finalize                                                    1       7.07 us       0.00     100.00       7.07 us       7.07 us       7.07 us

=====================================================================================================================================================
Note: The following floating-point exceptions are signalling: IEEE_UNDERFLOW_FLAG IEEE_DENORMAL
