
     Program PWSCF v.6.1 (svn rev. 13369) starts on  9May2017 at 10:40:28 

     This program is part of the open-source Quantum ESPRESSO suite
     for quantum simulation of materials; please cite
         "P. Giannozzi et al., J. Phys.:Condens. Matter 21 395502 (2009);
          URL http://www.quantum-espresso.org", 
     in publications or presentations arising from this work. More details at
     http://www.quantum-espresso.org/quote

     Parallel version (MPI), running on  5888 processors
     K-points division:     npool     =      92
     R & G space division:  proc/nbgrp/npool/nimage =      64
     wavefunctions fft division:  fft and procs/group =      16      4
     Reading input from pw.in

     Current dimensions of program PWSCF are:
     Max number of different atomic species (ntypx) = 10
     Max number of k-points (npk) =  40000
     Max angular momentum in pseudopotentials (lmaxx) =  3

     Subspace diagonalization in iterative solution of the eigenvalue problem:
     one sub-group per band group will be used
     custom distributed-memory algorithm (size of sub-group:  8*  8 procs)

 
     Parallelization info
     --------------------
     sticks:   dense  smooth     PW     G-vecs:    dense   smooth      PW
     Min         204     102     27                23274     8225    1144
     Max         205     103     28                23284     8230    1153
     Sum       13109    6553   1757              1489911   526579   73427
 


     bravais-lattice index     =            0
     lattice parameter (alat)  =      21.3697  a.u.
     unit-cell volume          =   12916.0692 (a.u.)^3
     number of atoms/cell      =          108
     number of atomic types    =            2
     number of electrons       =       864.00
     number of Kohn-Sham states=          518
     kinetic-energy cutoff     =      45.0000  Ry
     charge density cutoff     =     360.0000  Ry
     convergence threshold     =      1.1E-06
     mixing beta               =       0.3500
     number of iterations used =            8  plain     mixing
     Exchange-correlation      = SLA  PW   PBE  PBE ( 1  4  3  4 0 0)

     celldm(1)=  21.369685  celldm(2)=   0.000000  celldm(3)=   0.000000
     celldm(4)=   0.000000  celldm(5)=   0.000000  celldm(6)=   0.000000

     crystal axes: (cart. coord. in units of alat)
               a(1) = (   1.000000   0.000000   0.000000 )  
               a(2) = (   0.000000   0.936544   0.354886 )  
               a(3) = (   0.000000   0.000000   1.413214 )  

     reciprocal axes: (cart. coord. in units 2 pi/alat)
               b(1) = (  1.000000  0.000000  0.000000 )  
               b(2) = (  0.000000  1.067756  0.000000 )  
               b(3) = (  0.000000 -0.268135  0.707607 )  


     PseudoPot. # 1 for Si read from file:
     ./pseudo/Si.pbe-n-rrkjus_psl.1.0.0.UPF
     MD5 check sum: d928fff27e2cf23ab01de9cd48acd62a
     Pseudo is Ultrasoft + core correction, Zval =  4.0
     Generated using "atomic" code by A. Dal Corso  v.5.1
     Using radial grid of 1141 points,  6 beta functions with: 
                l(1) =   0
                l(2) =   0
                l(3) =   1
                l(4) =   1
                l(5) =   2
                l(6) =   2
     Q(r) pseudized with 0 coefficients 


     PseudoPot. # 2 for Zr read from file:
     ./pseudo/Zr_pbe_v1.uspp.F.UPF
     MD5 check sum: 5db81b1e868ab7776c4564c113de050b
     Pseudo is Ultrasoft + core correction, Zval = 12.0
     Generated by new atomic code, or converted to UPF format
     Using radial grid of  887 points,  6 beta functions with: 
                l(1) =   0
                l(2) =   0
                l(3) =   1
                l(4) =   1
                l(5) =   2
                l(6) =   2
     Q(r) pseudized with  6 coefficients,  rinner =    1.200   1.200   1.200
                                                       1.200   1.200

     atomic species   valence    mass     pseudopotential
        Si             4.00    28.08550     Si( 1.00)
        Zr            12.00    91.22400     Zr( 1.00)

     Starting magnetic structure 
     atomic species   magnetization
        Si           0.000
        Zr           0.417

     No symmetry found


                                    s                        frac. trans.

      isym =  1     identity                                     

 cryst.   s( 1) = (     1          0          0      )
                  (     0          1          0      )
                  (     0          0          1      )

 cart.    s( 1) = (  1.0000000  0.0000000  0.0000000 )
                  (  0.0000000  1.0000000  0.0000000 )
                  (  0.0000000  0.0000000  1.0000000 )


   Cartesian axes

     site n.     atom                  positions (alat units)
         1           Zr  tau(   1) = (   0.0766510   0.2654249   0.2397392  )
         2           Zr  tau(   2) = (   0.0823667   0.2728731   0.7053891  )
         3           Zr  tau(   3) = (   0.0867020   0.2723386   1.1771137  )
         4           Zr  tau(   4) = (   0.0893406   0.5805289   0.3527798  )
         5           Zr  tau(   5) = (   0.0886550   0.5767470   0.8313367  )
         6           Zr  tau(   6) = (   0.0861863   0.5851135   1.2961158  )
         7           Zr  tau(   7) = (   0.0799600   0.8974101   0.4750732  )
         8           Zr  tau(   8) = (   0.0863008   0.8917944   0.9519682  )
         9           Zr  tau(   9) = (   0.0889175   0.8897188   1.4125672  )
        10           Zr  tau(  10) = (   0.4125868   0.2706115   0.2335172  )
        11           Zr  tau(  11) = (   0.4189649   0.2633323   0.7032934  )
        12           Zr  tau(  12) = (   0.4203244   0.2630753   1.1753221  )
        13           Zr  tau(  13) = (   0.4186283   0.5798961   0.3494628  )
        14           Zr  tau(  14) = (   0.4201392   0.5840338   0.8308850  )
        15           Zr  tau(  15) = (   0.4216604   0.5833316   1.2957662  )
        16           Zr  tau(  16) = (   0.4107925   0.8932713   0.4711353  )
        17           Zr  tau(  17) = (   0.4107034   0.8880389   0.9476647  )
        18           Zr  tau(  18) = (   0.4213127   0.8900040   1.4218384  )
        19           Zr  tau(  19) = (   0.7521589   0.2646514   0.2442760  )
        20           Zr  tau(  20) = (   0.7532155   0.2607170   0.7104043  )
        21           Zr  tau(  21) = (   0.7436768   0.2673531   1.1769194  )
        22           Zr  tau(  22) = (   0.7482520   0.5772072   0.3495989  )
        23           Zr  tau(  23) = (   0.7453608   0.5766173   0.8225153  )
        24           Zr  tau(  24) = (   0.7536047   0.5781175   1.2923307  )
        25           Zr  tau(  25) = (   0.7455405   0.8956891   0.4713116  )
        26           Zr  tau(  26) = (   0.7559785   0.8917890   0.9418333  )
        27           Zr  tau(  27) = (   0.7444902   0.8950628   1.4144282  )
        28           Zr  tau(  28) = (   0.2483613   0.0508529   0.3473569  )
        29           Zr  tau(  29) = (   0.2481797   0.0431431   0.8290068  )
        30           Zr  tau(  30) = (   0.2468964   0.0497486   1.2981661  )
        31           Zr  tau(  31) = (   0.2515250   0.3600646   0.4761696  )
        32           Zr  tau(  32) = (   0.2474117   0.3603659   0.9467546  )
        33           Zr  tau(  33) = (   0.2554333   0.3529923   1.4115129  )
        34           Zr  tau(  34) = (   0.2469882   0.6642102   0.5913600  )
        35           Zr  tau(  35) = (   0.2519042   0.6629512   1.0581018  )
        36           Zr  tau(  36) = (   0.2568738   0.6681675   1.5294936  )
        37           Zr  tau(  37) = (   0.5786333   0.0492484   0.3479118  )
        38           Zr  tau(  38) = (   0.5763778   0.0462362   0.8216127  )
        39           Zr  tau(  39) = (   0.5776700   0.0433139   1.2973316  )
        40           Zr  tau(  40) = (   0.5891221   0.3536963   0.4683320  )
        41           Zr  tau(  41) = (   0.5797254   0.3514267   0.9410727  )
        42           Zr  tau(  42) = (   0.5862488   0.3544998   1.4061938  )
        43           Zr  tau(  43) = (   0.5891514   0.6700422   0.5840389  )
        44           Zr  tau(  44) = (   0.5869158   0.6723008   1.0536068  )
        45           Zr  tau(  45) = (   0.5887603   0.6719662   1.5262657  )
        46           Zr  tau(  46) = (   0.9165777   0.0433059   0.3446776  )
        47           Zr  tau(  47) = (   0.9100813   0.0450170   0.8199622  )
        48           Zr  tau(  48) = (   0.9127721   0.0508047   1.2958040  )
        49           Zr  tau(  49) = (   0.9155196   0.3632494   0.4657833  )
        50           Zr  tau(  50) = (   0.9164140   0.3524000   0.9457130  )
        51           Zr  tau(  51) = (   0.9195085   0.3635262   1.4094997  )
        52           Zr  tau(  52) = (   0.9119470   0.6644275   0.5883617  )
        53           Zr  tau(  53) = (   0.9116339   0.6657501   1.0621542  )
        54           Zr  tau(  54) = (   0.9166811   0.6764999   1.5321002  )
        55           Si  tau(  55) = (   0.2510402   0.1268503   0.1186292  )
        56           Si  tau(  56) = (   0.2453299   0.1359858   0.5978428  )
        57           Si  tau(  57) = (   0.2563462   0.1300817   1.0686342  )
        58           Si  tau(  58) = (   0.2567844   0.4417949   0.2422806  )
        59           Si  tau(  59) = (   0.2468897   0.4427387   0.7068621  )
        60           Si  tau(  60) = (   0.2550698   0.4400575   1.1874301  )
        61           Si  tau(  61) = (   0.2459915   0.7568287   0.3545876  )
        62           Si  tau(  62) = (   0.2434446   0.7564893   0.8340325  )
        63           Si  tau(  63) = (   0.2519143   0.7593795   1.2966009  )
        64           Si  tau(  64) = (   0.5851489   0.1278804   0.1294952  )
        65           Si  tau(  65) = (   0.5780191   0.1301663   0.5992756  )
        66           Si  tau(  66) = (   0.5845457   0.1260992   1.0701768  )
        67           Si  tau(  67) = (   0.5794058   0.4493771   0.2438955  )
        68           Si  tau(  68) = (   0.5846216   0.4413174   0.7196317  )
        69           Si  tau(  69) = (   0.5847086   0.4432729   1.1772799  )
        70           Si  tau(  70) = (   0.5899462   0.7534600   0.3605050  )
        71           Si  tau(  71) = (   0.5871643   0.7501531   0.8326692  )
        72           Si  tau(  72) = (   0.5898404   0.7562426   1.3052579  )
        73           Si  tau(  73) = (   0.9174115   0.1379066   0.1206320  )
        74           Si  tau(  74) = (   0.9234730   0.1317101   0.5929071  )
        75           Si  tau(  75) = (   0.9100158   0.1340108   1.0660820  )
        76           Si  tau(  76) = (   0.9105350   0.4465564   0.2442446  )
        77           Si  tau(  77) = (   0.9128547   0.4456952   0.7187748  )
        78           Si  tau(  78) = (   0.9100131   0.4436866   1.1817987  )
        79           Si  tau(  79) = (   0.9233544   0.7549533   0.3624242  )
        80           Si  tau(  80) = (   0.9229405   0.7570675   0.8345032  )
        81           Si  tau(  81) = (   0.9196355   0.7565319   1.3088923  )
        82           Si  tau(  82) = (   0.0886678   0.1765448   0.4632922  )
        83           Si  tau(  83) = (   0.0842061   0.1847647   0.9423092  )
        84           Si  tau(  84) = (   0.0857117   0.1773234   1.4135628  )
        85           Si  tau(  85) = (   0.0783850   0.4977190   0.5848660  )
        86           Si  tau(  86) = (   0.0829857   0.4987167   1.0587663  )
        87           Si  tau(  87) = (   0.0881725   0.4894942   1.5220443  )
        88           Si  tau(  88) = (   0.0815032   0.8075260   0.6958713  )
        89           Si  tau(  89) = (   0.0782658   0.8000186   1.1736817  )
        90           Si  tau(  90) = (   0.0883275   0.8003233   1.6462917  )
        91           Si  tau(  91) = (   0.4140670   0.1844367   0.4709317  )
        92           Si  tau(  92) = (   0.4104486   0.1780938   0.9389624  )
        93           Si  tau(  93) = (   0.4225209   0.1816755   1.4039312  )
        94           Si  tau(  94) = (   0.4102116   0.4953194   0.5825548  )
        95           Si  tau(  95) = (   0.4177778   0.4876399   1.0597293  )
        96           Si  tau(  96) = (   0.4177659   0.4877275   1.5211900  )
        97           Si  tau(  97) = (   0.4120241   0.8038257   0.6969747  )
        98           Si  tau(  98) = (   0.4166754   0.8057598   1.1802935  )
        99           Si  tau(  99) = (   0.4209236   0.8099078   1.6416511  )
       100           Si  tau( 100) = (   0.7507143   0.1777618   0.4591532  )
       101           Si  tau( 101) = (   0.7485324   0.1792818   0.9434748  )
       102           Si  tau( 102) = (   0.7490400   0.1740027   1.4101827  )
       103           Si  tau( 103) = (   0.7540681   0.4984991   0.5831806  )
       104           Si  tau( 104) = (   0.7466013   0.4930535   1.0487742  )
       105           Si  tau( 105) = (   0.7553816   0.4883492   1.5273329  )
       106           Si  tau( 106) = (   0.7448746   0.8055558   0.6973588  )
       107           Si  tau( 107) = (   0.7545797   0.7997997   1.1716309  )
       108           Si  tau( 108) = (   0.7515926   0.7980526   1.6446687  )

   Crystallographic axes

     site n.     atom                  positions (cryst. coord.)
         1           Zr  tau(   1) = (  0.0766510  0.2834089  0.0984715  )
         2           Zr  tau(   2) = (  0.0823667  0.2913619  0.4259714  )
         3           Zr  tau(   3) = (  0.0867020  0.2907911  0.7599103  )
         4           Zr  tau(   4) = (  0.0893406  0.6198631  0.0939694  )
         5           Zr  tau(   5) = (  0.0886550  0.6158249  0.4336136  )
         6           Zr  tau(   6) = (  0.0861863  0.6247583  0.7602511  )
         7           Zr  tau(   7) = (  0.0799600  0.9582149  0.0955381  )
         8           Zr  tau(   8) = (  0.0863008  0.9522187  0.4344980  )
         9           Zr  tau(   9) = (  0.0889175  0.9500024  0.7609776  )
        10           Zr  tau(  10) = (  0.4125868  0.2889470  0.0926780  )
        11           Zr  tau(  11) = (  0.4189649  0.2811746  0.4270466  )
        12           Zr  tau(  12) = (  0.4203244  0.2809002  0.7611263  )
        13           Zr  tau(  13) = (  0.4186283  0.6191874  0.0917919  )
        14           Zr  tau(  14) = (  0.4201392  0.6236055  0.4313401  )
        15           Zr  tau(  15) = (  0.4216604  0.6228557  0.7604815  )
        16           Zr  tau(  16) = (  0.4107925  0.9537956  0.0938614  )
        17           Zr  tau(  17) = (  0.4107034  0.9482087  0.4324599  )
        18           Zr  tau(  18) = (  0.4213127  0.9503070  0.7674615  )
        19           Zr  tau(  19) = (  0.7521589  0.2825830  0.1018891  )
        20           Zr  tau(  20) = (  0.7532155  0.2783821  0.4327796  )
        21           Zr  tau(  21) = (  0.7436768  0.2854678  0.7611096  )
        22           Zr  tau(  22) = (  0.7482520  0.6163163  0.0926092  )
        23           Zr  tau(  23) = (  0.7453608  0.6156865  0.4274063  )
        24           Zr  tau(  24) = (  0.7536047  0.6172883  0.7594486  )
        25           Zr  tau(  25) = (  0.7455405  0.9563772  0.0933378  )
        26           Zr  tau(  26) = (  0.7559785  0.9522129  0.4273280  )
        27           Zr  tau(  27) = (  0.7444902  0.9557085  0.7608615  )
        28           Zr  tau(  28) = (  0.2483613  0.0542985  0.2321567  )
        29           Zr  tau(  29) = (  0.2481797  0.0460663  0.5750427  )
        30           Zr  tau(  30) = (  0.2468964  0.0531194  0.9052519  )
        31           Zr  tau(  31) = (  0.2515250  0.3844611  0.2403950  )
        32           Zr  tau(  32) = (  0.2474117  0.3847827  0.5733034  )
        33           Zr  tau(  33) = (  0.2554333  0.3769096  0.9041466  )
        34           Zr  tau(  34) = (  0.2469882  0.7092143  0.2403525  )
        35           Zr  tau(  35) = (  0.2519042  0.7078699  0.5709598  )
        36           Zr  tau(  36) = (  0.2568738  0.7134398  0.9031211  )
        37           Zr  tau(  37) = (  0.5786333  0.0525853  0.2329796  )
        38           Zr  tau(  38) = (  0.5763778  0.0493690  0.5689812  )
        39           Zr  tau(  39) = (  0.5776700  0.0462486  0.9063868  )
        40           Zr  tau(  40) = (  0.5891221  0.3776613  0.2365566  )
        41           Zr  tau(  41) = (  0.5797254  0.3752379  0.5716797  )
        42           Zr  tau(  42) = (  0.5862488  0.3785193  0.8999786  )
        43           Zr  tau(  43) = (  0.5891514  0.7154414  0.2336083  )
        44           Zr  tau(  44) = (  0.5869158  0.7178531  0.5652721  )
        45           Zr  tau(  45) = (  0.5887603  0.7174959  0.8998185  )
        46           Zr  tau(  46) = (  0.9165777  0.0462401  0.2322844  )
        47           Zr  tau(  47) = (  0.9100813  0.0480671  0.5681403  )
        48           Zr  tau(  48) = (  0.9127721  0.0542471  0.9032973  )
        49           Zr  tau(  49) = (  0.9155196  0.3878617  0.2321916  )
        50           Zr  tau(  50) = (  0.9164140  0.3762772  0.5747023  )
        51           Zr  tau(  51) = (  0.9195085  0.3881572  0.8998976  )
        52           Zr  tau(  52) = (  0.9119470  0.7094463  0.2381726  )
        53           Zr  tau(  53) = (  0.9116339  0.7108585  0.5730768  )
        54           Zr  tau(  54) = (  0.9166811  0.7223367  0.9027314  )
        55           Si  tau(  55) = (  0.2510402  0.1354451  0.0499299  )
        56           Si  tau(  56) = (  0.2453299  0.1451997  0.3865751  )
        57           Si  tau(  57) = (  0.2563462  0.1388955  0.7212934  )
        58           Si  tau(  58) = (  0.2567844  0.4717291  0.0529788  )
        59           Si  tau(  59) = (  0.2468897  0.4727368  0.3814667  )
        60           Si  tau(  60) = (  0.2550698  0.4698740  0.7222389  )
        61           Si  tau(  61) = (  0.2459915  0.8081083  0.0479764  )
        62           Si  tau(  62) = (  0.2434446  0.8077459  0.3873260  )
        63           Si  tau(  63) = (  0.2519143  0.8108319  0.7138675  )
        64           Si  tau(  64) = (  0.5851489  0.1365450  0.0573425  )
        65           Si  tau(  65) = (  0.5780191  0.1389858  0.3891494  )
        66           Si  tau(  66) = (  0.5845457  0.1346431  0.7234528  )
        67           Si  tau(  67) = (  0.5794058  0.4798250  0.0520884  )
        68           Si  tau(  68) = (  0.5846216  0.4712192  0.3908837  )
        69           Si  tau(  69) = (  0.5847086  0.4733072  0.7141944  )
        70           Si  tau(  70) = (  0.5899462  0.8045113  0.0530669  )
        71           Si  tau(  71) = (  0.5871643  0.8009803  0.3880602  )
        72           Si  tau(  72) = (  0.5898404  0.8074824  0.7208345  )
        73           Si  tau(  73) = (  0.9174115  0.1472506  0.0483824  )
        74           Si  tau(  74) = (  0.9234730  0.1406343  0.3842291  )
        75           Si  tau(  75) = (  0.9100158  0.1430908  0.7184340  )
        76           Si  tau(  76) = (  0.9105350  0.4768132  0.0530918  )
        77           Si  tau(  77) = (  0.9128547  0.4758936  0.3891036  )
        78           Si  tau(  78) = (  0.9100131  0.4737490  0.7172810  )
        79           Si  tau(  79) = (  0.9233544  0.8061058  0.0540246  )
        80           Si  tau(  80) = (  0.9229405  0.8083633  0.3875040  )
        81           Si  tau(  81) = (  0.9196355  0.8077914  0.7233286  )
        82           Si  tau(  82) = (  0.0886678  0.1885067  0.2804909  )
        83           Si  tau(  83) = (  0.0842061  0.1972836  0.6172426  )
        84           Si  tau(  84) = (  0.0857117  0.1893381  0.9527001  )
        85           Si  tau(  85) = (  0.0783850  0.5314423  0.2803994  )
        86           Si  tau(  86) = (  0.0829857  0.5325076  0.6154670  )
        87           Si  tau(  87) = (  0.0881725  0.5226603  0.9457585  )
        88           Si  tau(  88) = (  0.0815032  0.8622406  0.2758774  )
        89           Si  tau(  89) = (  0.0782658  0.8542245  0.6159923  )
        90           Si  tau(  90) = (  0.0883275  0.8545498  0.9503327  )
        91           Si  tau(  91) = (  0.4140670  0.1969334  0.2837806  )
        92           Si  tau(  92) = (  0.4104486  0.1901607  0.6166630  )
        93           Si  tau(  93) = (  0.4225209  0.1939851  0.9447178  )
        94           Si  tau(  94) = (  0.4102116  0.5288802  0.2794074  )
        95           Si  tau(  95) = (  0.4177778  0.5206803  0.6191185  )
        96           Si  tau(  96) = (  0.4177659  0.5207739  0.9456277  )
        97           Si  tau(  97) = (  0.4120241  0.8582895  0.2776504  )
        98           Si  tau(  98) = (  0.4166754  0.8603547  0.6191315  )
        99           Si  tau(  99) = (  0.4209236  0.8647838  0.9444790  )
       100           Si  tau( 100) = (  0.7507143  0.1898062  0.2772358  )
       101           Si  tau( 101) = (  0.7485324  0.1914292  0.6195375  )
       102           Si  tau( 102) = (  0.7490400  0.1857923  0.9511988  )
       103           Si  tau( 103) = (  0.7540681  0.5322753  0.2789976  )
       104           Si  tau( 104) = (  0.7466013  0.5264608  0.6099150  )
       105           Si  tau( 105) = (  0.7553816  0.5214376  0.9498078  )
       106           Si  tau( 106) = (  0.7448746  0.8601368  0.2774582  )
       107           Si  tau( 107) = (  0.7545797  0.8539907  0.6145999  )
       108           Si  tau( 108) = (  0.7515926  0.8521253  0.9497931  )

     number of k points=    92  Marzari-Vanderbilt smearing, width (Ry)=  0.0200
                       cart. coord. in units 2pi/alat
        k(    1) = (   0.0000000   0.0000000   0.0000000), wk =   0.0055556
        k(    2) = (   0.0000000  -0.0536270   0.1415214), wk =   0.0111111
        k(    3) = (   0.0000000  -0.1072539   0.2830427), wk =   0.0111111
        k(    4) = (   0.0000000   0.1779593   0.0000000), wk =   0.0111111
        k(    5) = (   0.0000000   0.1243323   0.1415214), wk =   0.0111111
        k(    6) = (   0.0000000   0.0707054   0.2830427), wk =   0.0111111
        k(    7) = (   0.0000000   0.2852132  -0.2830427), wk =   0.0111111
        k(    8) = (   0.0000000   0.2315863  -0.1415214), wk =   0.0111111
        k(    9) = (   0.0000000   0.3559186   0.0000000), wk =   0.0111111
        k(   10) = (   0.0000000   0.3022916   0.1415214), wk =   0.0111111
        k(   11) = (   0.0000000   0.2486647   0.2830427), wk =   0.0111111
        k(   12) = (   0.0000000   0.4631725  -0.2830427), wk =   0.0111111
        k(   13) = (   0.0000000   0.4095456  -0.1415214), wk =   0.0111111
        k(   14) = (   0.0000000  -0.5338779   0.0000000), wk =   0.0055556
        k(   15) = (   0.0000000  -0.5875049   0.1415214), wk =   0.0111111
        k(   16) = (   0.0000000  -0.6411318   0.2830427), wk =   0.0111111
        k(   17) = (   0.1666667   0.0000000   0.0000000), wk =   0.0111111
        k(   18) = (   0.1666667  -0.0536270   0.1415214), wk =   0.0111111
        k(   19) = (   0.1666667  -0.1072539   0.2830427), wk =   0.0111111
        k(   20) = (   0.1666667   0.1779593   0.0000000), wk =   0.0111111
        k(   21) = (   0.1666667   0.1243323   0.1415214), wk =   0.0111111
        k(   22) = (   0.1666667   0.0707054   0.2830427), wk =   0.0111111
        k(   23) = (   0.1666667   0.2852132  -0.2830427), wk =   0.0111111
        k(   24) = (   0.1666667   0.2315863  -0.1415214), wk =   0.0111111
        k(   25) = (   0.1666667   0.3559186   0.0000000), wk =   0.0111111
        k(   26) = (   0.1666667   0.3022916   0.1415214), wk =   0.0111111
        k(   27) = (   0.1666667   0.2486647   0.2830427), wk =   0.0111111
        k(   28) = (   0.1666667   0.4631725  -0.2830427), wk =   0.0111111
        k(   29) = (   0.1666667   0.4095456  -0.1415214), wk =   0.0111111
        k(   30) = (   0.1666667  -0.5338779   0.0000000), wk =   0.0111111
        k(   31) = (   0.1666667  -0.5875049   0.1415214), wk =   0.0111111
        k(   32) = (   0.1666667  -0.6411318   0.2830427), wk =   0.0111111
        k(   33) = (   0.3333333   0.0000000   0.0000000), wk =   0.0111111
        k(   34) = (   0.3333333  -0.0536270   0.1415214), wk =   0.0111111
        k(   35) = (   0.3333333  -0.1072539   0.2830427), wk =   0.0111111
        k(   36) = (   0.3333333   0.1779593   0.0000000), wk =   0.0111111
        k(   37) = (   0.3333333   0.1243323   0.1415214), wk =   0.0111111
        k(   38) = (   0.3333333   0.0707054   0.2830427), wk =   0.0111111
        k(   39) = (   0.3333333   0.2852132  -0.2830427), wk =   0.0111111
        k(   40) = (   0.3333333   0.2315863  -0.1415214), wk =   0.0111111
        k(   41) = (   0.3333333   0.3559186   0.0000000), wk =   0.0111111
        k(   42) = (   0.3333333   0.3022916   0.1415214), wk =   0.0111111
        k(   43) = (   0.3333333   0.2486647   0.2830427), wk =   0.0111111
        k(   44) = (   0.3333333   0.4631725  -0.2830427), wk =   0.0111111
        k(   45) = (   0.3333333   0.4095456  -0.1415214), wk =   0.0111111
        k(   46) = (   0.3333333  -0.5338779   0.0000000), wk =   0.0111111
        k(   47) = (   0.3333333  -0.5875049   0.1415214), wk =   0.0111111
        k(   48) = (   0.3333333  -0.6411318   0.2830427), wk =   0.0111111
        k(   49) = (  -0.5000000   0.0000000   0.0000000), wk =   0.0055556
        k(   50) = (  -0.5000000  -0.0536270   0.1415214), wk =   0.0111111
        k(   51) = (  -0.5000000  -0.1072539   0.2830427), wk =   0.0111111
        k(   52) = (  -0.5000000   0.1779593   0.0000000), wk =   0.0111111
        k(   53) = (  -0.5000000   0.1243323   0.1415214), wk =   0.0111111
        k(   54) = (  -0.5000000   0.0707054   0.2830427), wk =   0.0111111
        k(   55) = (  -0.5000000   0.2852132  -0.2830427), wk =   0.0111111
        k(   56) = (  -0.5000000   0.2315863  -0.1415214), wk =   0.0111111
        k(   57) = (  -0.5000000   0.3559186   0.0000000), wk =   0.0111111
        k(   58) = (  -0.5000000   0.3022916   0.1415214), wk =   0.0111111
        k(   59) = (  -0.5000000   0.2486647   0.2830427), wk =   0.0111111
        k(   60) = (  -0.5000000   0.4631725  -0.2830427), wk =   0.0111111
        k(   61) = (  -0.5000000   0.4095456  -0.1415214), wk =   0.0111111
        k(   62) = (  -0.5000000  -0.5338779   0.0000000), wk =   0.0055556
        k(   63) = (  -0.5000000  -0.5875049   0.1415214), wk =   0.0111111
        k(   64) = (  -0.5000000  -0.6411318   0.2830427), wk =   0.0111111
        k(   65) = (   0.1666667   0.0536270  -0.1415214), wk =   0.0111111
        k(   66) = (   0.1666667   0.1072539  -0.2830427), wk =   0.0111111
        k(   67) = (   0.1666667  -0.1779593   0.0000000), wk =   0.0111111
        k(   68) = (   0.1666667  -0.1243323  -0.1415214), wk =   0.0111111
        k(   69) = (   0.1666667  -0.0707054  -0.2830427), wk =   0.0111111
        k(   70) = (   0.1666667  -0.2852132   0.2830427), wk =   0.0111111
        k(   71) = (   0.1666667  -0.2315863   0.1415214), wk =   0.0111111
        k(   72) = (   0.1666667  -0.3559186   0.0000000), wk =   0.0111111
        k(   73) = (   0.1666667  -0.3022916  -0.1415214), wk =   0.0111111
        k(   74) = (   0.1666667  -0.2486647  -0.2830427), wk =   0.0111111
        k(   75) = (   0.1666667  -0.4631725   0.2830427), wk =   0.0111111
        k(   76) = (   0.1666667  -0.4095456   0.1415214), wk =   0.0111111
        k(   77) = (   0.1666667   0.5875049  -0.1415214), wk =   0.0111111
        k(   78) = (   0.1666667   0.6411318  -0.2830427), wk =   0.0111111
        k(   79) = (   0.3333333   0.0536270  -0.1415214), wk =   0.0111111
        k(   80) = (   0.3333333   0.1072539  -0.2830427), wk =   0.0111111
        k(   81) = (   0.3333333  -0.1779593   0.0000000), wk =   0.0111111
        k(   82) = (   0.3333333  -0.1243323  -0.1415214), wk =   0.0111111
        k(   83) = (   0.3333333  -0.0707054  -0.2830427), wk =   0.0111111
        k(   84) = (   0.3333333  -0.2852132   0.2830427), wk =   0.0111111
        k(   85) = (   0.3333333  -0.2315863   0.1415214), wk =   0.0111111
        k(   86) = (   0.3333333  -0.3559186   0.0000000), wk =   0.0111111
        k(   87) = (   0.3333333  -0.3022916  -0.1415214), wk =   0.0111111
        k(   88) = (   0.3333333  -0.2486647  -0.2830427), wk =   0.0111111
        k(   89) = (   0.3333333  -0.4631725   0.2830427), wk =   0.0111111
        k(   90) = (   0.3333333  -0.4095456   0.1415214), wk =   0.0111111
        k(   91) = (   0.3333333   0.5875049  -0.1415214), wk =   0.0111111
        k(   92) = (   0.3333333   0.6411318  -0.2830427), wk =   0.0111111

                       cryst. coord.
        k(    1) = (   0.0000000   0.0000000   0.0000000), wk =   0.0055556
        k(    2) = (   0.0000000   0.0000000   0.2000000), wk =   0.0111111
        k(    3) = (   0.0000000   0.0000000   0.4000000), wk =   0.0111111
        k(    4) = (   0.0000000   0.1666667   0.0000000), wk =   0.0111111
        k(    5) = (   0.0000000   0.1666667   0.2000000), wk =   0.0111111
        k(    6) = (   0.0000000   0.1666667   0.4000000), wk =   0.0111111
        k(    7) = (   0.0000000   0.1666667  -0.4000000), wk =   0.0111111
        k(    8) = (   0.0000000   0.1666667  -0.2000000), wk =   0.0111111
        k(    9) = (   0.0000000   0.3333333   0.0000000), wk =   0.0111111
        k(   10) = (   0.0000000   0.3333333   0.2000000), wk =   0.0111111
        k(   11) = (   0.0000000   0.3333333   0.4000000), wk =   0.0111111
        k(   12) = (   0.0000000   0.3333333  -0.4000000), wk =   0.0111111
        k(   13) = (   0.0000000   0.3333333  -0.2000000), wk =   0.0111111
        k(   14) = (   0.0000000  -0.5000000   0.0000000), wk =   0.0055556
        k(   15) = (   0.0000000  -0.5000000   0.2000000), wk =   0.0111111
        k(   16) = (   0.0000000  -0.5000000   0.4000000), wk =   0.0111111
        k(   17) = (   0.1666667   0.0000000   0.0000000), wk =   0.0111111
        k(   18) = (   0.1666667   0.0000000   0.2000000), wk =   0.0111111
        k(   19) = (   0.1666667   0.0000000   0.4000000), wk =   0.0111111
        k(   20) = (   0.1666667   0.1666667   0.0000000), wk =   0.0111111
        k(   21) = (   0.1666667   0.1666667   0.2000000), wk =   0.0111111
        k(   22) = (   0.1666667   0.1666667   0.4000000), wk =   0.0111111
        k(   23) = (   0.1666667   0.1666667  -0.4000000), wk =   0.0111111
        k(   24) = (   0.1666667   0.1666667  -0.2000000), wk =   0.0111111
        k(   25) = (   0.1666667   0.3333333   0.0000000), wk =   0.0111111
        k(   26) = (   0.1666667   0.3333333   0.2000000), wk =   0.0111111
        k(   27) = (   0.1666667   0.3333333   0.4000000), wk =   0.0111111
        k(   28) = (   0.1666667   0.3333333  -0.4000000), wk =   0.0111111
        k(   29) = (   0.1666667   0.3333333  -0.2000000), wk =   0.0111111
        k(   30) = (   0.1666667  -0.5000000   0.0000000), wk =   0.0111111
        k(   31) = (   0.1666667  -0.5000000   0.2000000), wk =   0.0111111
        k(   32) = (   0.1666667  -0.5000000   0.4000000), wk =   0.0111111
        k(   33) = (   0.3333333   0.0000000   0.0000000), wk =   0.0111111
        k(   34) = (   0.3333333   0.0000000   0.2000000), wk =   0.0111111
        k(   35) = (   0.3333333   0.0000000   0.4000000), wk =   0.0111111
        k(   36) = (   0.3333333   0.1666667   0.0000000), wk =   0.0111111
        k(   37) = (   0.3333333   0.1666667   0.2000000), wk =   0.0111111
        k(   38) = (   0.3333333   0.1666667   0.4000000), wk =   0.0111111
        k(   39) = (   0.3333333   0.1666667  -0.4000000), wk =   0.0111111
        k(   40) = (   0.3333333   0.1666667  -0.2000000), wk =   0.0111111
        k(   41) = (   0.3333333   0.3333333   0.0000000), wk =   0.0111111
        k(   42) = (   0.3333333   0.3333333   0.2000000), wk =   0.0111111
        k(   43) = (   0.3333333   0.3333333   0.4000000), wk =   0.0111111
        k(   44) = (   0.3333333   0.3333333  -0.4000000), wk =   0.0111111
        k(   45) = (   0.3333333   0.3333333  -0.2000000), wk =   0.0111111
        k(   46) = (   0.3333333  -0.5000000   0.0000000), wk =   0.0111111
        k(   47) = (   0.3333333  -0.5000000   0.2000000), wk =   0.0111111
        k(   48) = (   0.3333333  -0.5000000   0.4000000), wk =   0.0111111
        k(   49) = (  -0.5000000   0.0000000   0.0000000), wk =   0.0055556
        k(   50) = (  -0.5000000   0.0000000   0.2000000), wk =   0.0111111
        k(   51) = (  -0.5000000   0.0000000   0.4000000), wk =   0.0111111
        k(   52) = (  -0.5000000   0.1666667   0.0000000), wk =   0.0111111
        k(   53) = (  -0.5000000   0.1666667   0.2000000), wk =   0.0111111
        k(   54) = (  -0.5000000   0.1666667   0.4000000), wk =   0.0111111
        k(   55) = (  -0.5000000   0.1666667  -0.4000000), wk =   0.0111111
        k(   56) = (  -0.5000000   0.1666667  -0.2000000), wk =   0.0111111
        k(   57) = (  -0.5000000   0.3333333   0.0000000), wk =   0.0111111
        k(   58) = (  -0.5000000   0.3333333   0.2000000), wk =   0.0111111
        k(   59) = (  -0.5000000   0.3333333   0.4000000), wk =   0.0111111
        k(   60) = (  -0.5000000   0.3333333  -0.4000000), wk =   0.0111111
        k(   61) = (  -0.5000000   0.3333333  -0.2000000), wk =   0.0111111
        k(   62) = (  -0.5000000  -0.5000000   0.0000000), wk =   0.0055556
        k(   63) = (  -0.5000000  -0.5000000   0.2000000), wk =   0.0111111
        k(   64) = (  -0.5000000  -0.5000000   0.4000000), wk =   0.0111111
        k(   65) = (   0.1666667  -0.0000000  -0.2000000), wk =   0.0111111
        k(   66) = (   0.1666667  -0.0000000  -0.4000000), wk =   0.0111111
        k(   67) = (   0.1666667  -0.1666667   0.0000000), wk =   0.0111111
        k(   68) = (   0.1666667  -0.1666667  -0.2000000), wk =   0.0111111
        k(   69) = (   0.1666667  -0.1666667  -0.4000000), wk =   0.0111111
        k(   70) = (   0.1666667  -0.1666667   0.4000000), wk =   0.0111111
        k(   71) = (   0.1666667  -0.1666667   0.2000000), wk =   0.0111111
        k(   72) = (   0.1666667  -0.3333333   0.0000000), wk =   0.0111111
        k(   73) = (   0.1666667  -0.3333333  -0.2000000), wk =   0.0111111
        k(   74) = (   0.1666667  -0.3333333  -0.4000000), wk =   0.0111111
        k(   75) = (   0.1666667  -0.3333333   0.4000000), wk =   0.0111111
        k(   76) = (   0.1666667  -0.3333333   0.2000000), wk =   0.0111111
        k(   77) = (   0.1666667   0.5000000  -0.2000000), wk =   0.0111111
        k(   78) = (   0.1666667   0.5000000  -0.4000000), wk =   0.0111111
        k(   79) = (   0.3333333  -0.0000000  -0.2000000), wk =   0.0111111
        k(   80) = (   0.3333333  -0.0000000  -0.4000000), wk =   0.0111111
        k(   81) = (   0.3333333  -0.1666667   0.0000000), wk =   0.0111111
        k(   82) = (   0.3333333  -0.1666667  -0.2000000), wk =   0.0111111
        k(   83) = (   0.3333333  -0.1666667  -0.4000000), wk =   0.0111111
        k(   84) = (   0.3333333  -0.1666667   0.4000000), wk =   0.0111111
        k(   85) = (   0.3333333  -0.1666667   0.2000000), wk =   0.0111111
        k(   86) = (   0.3333333  -0.3333333   0.0000000), wk =   0.0111111
        k(   87) = (   0.3333333  -0.3333333  -0.2000000), wk =   0.0111111
        k(   88) = (   0.3333333  -0.3333333  -0.4000000), wk =   0.0111111
        k(   89) = (   0.3333333  -0.3333333   0.4000000), wk =   0.0111111
        k(   90) = (   0.3333333  -0.3333333   0.2000000), wk =   0.0111111
        k(   91) = (   0.3333333   0.5000000  -0.2000000), wk =   0.0111111
        k(   92) = (   0.3333333   0.5000000  -0.4000000), wk =   0.0111111

     Dense  grid:  1489911 G-vectors     FFT dimensions: ( 135, 135, 192)

     Smooth grid:   526579 G-vectors     FFT dimensions: (  96,  96, 135)

     Estimated max dynamical RAM per process >     159.79MB

     Estimated total allocated dynamical RAM >  940867.31MB
     Generating pointlists ...
     new r_m :   0.0840 (alat units)  1.7961 (a.u.) for type    1
     new r_m :   0.0945 (alat units)  2.0195 (a.u.) for type    2

     Initial potential from superposition of free atoms
     Check: negative starting charge=(component1):   -2.322411
     Check: negative starting charge=(component2):   -0.946604

     starting charge  863.85374, renormalised to  864.00000

     negative rho (up, down):  2.323E+00 9.468E-01
     Starting wfc are  918 randomized atomic wfcs

     total cpu time spent up to now is       32.0 secs

     per-process dynamical memory:   132.6 Mb

     Self-consistent Calculation

     iteration #  1     ecut=    45.00 Ry     beta=0.35
     Davidson diagonalization with overlap
     ethr =  1.00E-02,  avg # of iterations =  2.5

     negative rho (up, down):  2.092E+00 1.186E+00

     total cpu time spent up to now is       61.8 secs

     total energy              =   -5970.58031944 Ry
     Harris-Foulkes estimate   =   -5964.11121130 Ry
     estimated scf accuracy    <       9.89347761 Ry

     total magnetization       =    43.88 Bohr mag/cell
     absolute magnetization    =    53.15 Bohr mag/cell

     iteration #  2     ecut=    45.00 Ry     beta=0.35
     Davidson diagonalization with overlap
     ethr =  1.15E-03,  avg # of iterations =  2.0

     negative rho (up, down):  1.992E+00 1.295E+00

     total cpu time spent up to now is       85.4 secs

     total energy              =   -5972.46146266 Ry
     Harris-Foulkes estimate   =   -5971.39915958 Ry
     estimated scf accuracy    <       7.40727459 Ry

     total magnetization       =    31.17 Bohr mag/cell
     absolute magnetization    =    40.55 Bohr mag/cell

     iteration #  3     ecut=    45.00 Ry     beta=0.35
     Davidson diagonalization with overlap
     ethr =  8.57E-04,  avg # of iterations =  5.0

     negative rho (up, down):  1.859E+00 1.442E+00

     total cpu time spent up to now is      131.8 secs

     total energy              =   -5971.86555073 Ry
     Harris-Foulkes estimate   =   -5976.70590408 Ry
     estimated scf accuracy    <      90.86034474 Ry

     total magnetization       =    32.88 Bohr mag/cell
     absolute magnetization    =    39.06 Bohr mag/cell

     iteration #  4     ecut=    45.00 Ry     beta=0.35
     Davidson diagonalization with overlap
     ethr =  8.57E-04,  avg # of iterations =  5.6

     negative rho (up, down):  1.760E+00 1.550E+00

     total cpu time spent up to now is      183.1 secs

     total energy              =   -5975.57866709 Ry
     Harris-Foulkes estimate   =   -5977.53761448 Ry
     estimated scf accuracy    <      29.30702218 Ry

     total magnetization       =    19.57 Bohr mag/cell
     absolute magnetization    =    25.94 Bohr mag/cell

     iteration #  5     ecut=    45.00 Ry     beta=0.35
     Davidson diagonalization with overlap
     ethr =  8.57E-04,  avg # of iterations =  4.6

     negative rho (up, down):  1.712E+00 1.604E+00

     total cpu time spent up to now is      222.4 secs

     total energy              =   -5977.32428646 Ry
     Harris-Foulkes estimate   =   -5977.71579383 Ry
     estimated scf accuracy    <       5.32846921 Ry

     total magnetization       =    10.10 Bohr mag/cell
     absolute magnetization    =    16.33 Bohr mag/cell

     iteration #  6     ecut=    45.00 Ry     beta=0.35
     Davidson diagonalization with overlap
     ethr =  6.17E-04,  avg # of iterations =  3.7

     negative rho (up, down):  1.686E+00 1.634E+00

     total cpu time spent up to now is      255.4 secs

     total energy              =   -5977.67003907 Ry
     Harris-Foulkes estimate   =   -5977.95721636 Ry
     estimated scf accuracy    <       3.27145299 Ry

     total magnetization       =     6.81 Bohr mag/cell
     absolute magnetization    =    12.40 Bohr mag/cell

     iteration #  7     ecut=    45.00 Ry     beta=0.35
     Davidson diagonalization with overlap
     ethr =  3.79E-04,  avg # of iterations =  5.1

     negative rho (up, down):  1.658E+00 1.666E+00

     total cpu time spent up to now is      295.5 secs

     total energy              =   -5977.85322479 Ry
     Harris-Foulkes estimate   =   -5978.17062302 Ry
     estimated scf accuracy    <       4.43184967 Ry

     total magnetization       =     5.11 Bohr mag/cell
     absolute magnetization    =     9.92 Bohr mag/cell

     iteration #  8     ecut=    45.00 Ry     beta=0.35
     Davidson diagonalization with overlap
     ethr =  3.79E-04,  avg # of iterations =  2.1

     negative rho (up, down):  1.649E+00 1.677E+00

     total cpu time spent up to now is      320.4 secs

     total energy              =   -5978.07878970 Ry
     Harris-Foulkes estimate   =   -5978.11756814 Ry
     estimated scf accuracy    <       0.35373733 Ry

     total magnetization       =     2.84 Bohr mag/cell
     absolute magnetization    =     6.93 Bohr mag/cell

     iteration #  9     ecut=    45.00 Ry     beta=0.35
     Davidson diagonalization with overlap
     ethr =  4.09E-05,  avg # of iterations =  8.7

     negative rho (up, down):  1.649E+00 1.679E+00

     total cpu time spent up to now is      387.1 secs

     total energy              =   -5978.13161986 Ry
     Harris-Foulkes estimate   =   -5978.13149921 Ry
     estimated scf accuracy    <       0.05860605 Ry

     total magnetization       =     1.97 Bohr mag/cell
     absolute magnetization    =     5.16 Bohr mag/cell

     iteration # 10     ecut=    45.00 Ry     beta=0.35
     Davidson diagonalization with overlap
     ethr =  6.78E-06,  avg # of iterations =  9.2

     negative rho (up, down):  1.651E+00 1.678E+00

     total cpu time spent up to now is      477.3 secs

     total energy              =   -5978.14326501 Ry
     Harris-Foulkes estimate   =   -5978.14359924 Ry
     estimated scf accuracy    <       0.05237189 Ry

     total magnetization       =     1.58 Bohr mag/cell
     absolute magnetization    =     4.23 Bohr mag/cell

     iteration # 11     ecut=    45.00 Ry     beta=0.35
     Davidson diagonalization with overlap
     ethr =  6.06E-06,  avg # of iterations =  3.6

     negative rho (up, down):  1.651E+00 1.677E+00

     total cpu time spent up to now is      511.8 secs

     total energy              =   -5978.15361759 Ry
     Harris-Foulkes estimate   =   -5978.14927101 Ry
     estimated scf accuracy    <       0.01429751 Ry

     total magnetization       =     1.32 Bohr mag/cell
     absolute magnetization    =     3.65 Bohr mag/cell

     iteration # 12     ecut=    45.00 Ry     beta=0.35
     Davidson diagonalization with overlap
     ethr =  1.65E-06,  avg # of iterations =  4.3

     negative rho (up, down):  1.654E+00 1.675E+00

     total cpu time spent up to now is      566.8 secs

     total energy              =   -5978.16182848 Ry
     Harris-Foulkes estimate   =   -5978.15541714 Ry
     estimated scf accuracy    <       0.00282448 Ry

     total magnetization       =     1.04 Bohr mag/cell
     absolute magnetization    =     3.03 Bohr mag/cell

     iteration # 13     ecut=    45.00 Ry     beta=0.35
     Davidson diagonalization with overlap
     ethr =  3.27E-07,  avg # of iterations =  3.4

     negative rho (up, down):  1.656E+00 1.674E+00

     total cpu time spent up to now is      603.5 secs

     total energy              =   -5978.16524884 Ry
     Harris-Foulkes estimate   =   -5978.16313720 Ry
     estimated scf accuracy    <       0.00557900 Ry

     total magnetization       =     0.71 Bohr mag/cell
     absolute magnetization    =     2.12 Bohr mag/cell

     iteration # 14     ecut=    45.00 Ry     beta=0.35
     Davidson diagonalization with overlap
     ethr =  3.27E-07,  avg # of iterations =  3.0

     negative rho (up, down):  1.658E+00 1.672E+00

     total cpu time spent up to now is      633.4 secs

     total energy              =   -5978.16809682 Ry
     Harris-Foulkes estimate   =   -5978.16614615 Ry
     estimated scf accuracy    <       0.00278773 Ry

     total magnetization       =     0.49 Bohr mag/cell
     absolute magnetization    =     1.60 Bohr mag/cell

     iteration # 15     ecut=    45.00 Ry     beta=0.35
     Davidson diagonalization with overlap
     ethr =  3.23E-07,  avg # of iterations =  3.0

     negative rho (up, down):  1.659E+00 1.671E+00

     total cpu time spent up to now is      661.8 secs

     total energy              =   -5978.16930125 Ry
     Harris-Foulkes estimate   =   -5978.16870817 Ry
     estimated scf accuracy    <       0.00167361 Ry

     total magnetization       =     0.28 Bohr mag/cell
     absolute magnetization    =     1.03 Bohr mag/cell

     iteration # 16     ecut=    45.00 Ry     beta=0.35
     Davidson diagonalization with overlap
     ethr =  1.94E-07,  avg # of iterations =  3.0

     negative rho (up, down):  1.661E+00 1.669E+00

     total cpu time spent up to now is      689.6 secs

     total energy              =   -5978.16995177 Ry
     Harris-Foulkes estimate   =   -5978.16964000 Ry
     estimated scf accuracy    <       0.00180857 Ry

     total magnetization       =     0.16 Bohr mag/cell
     absolute magnetization    =     0.72 Bohr mag/cell

     iteration # 17     ecut=    45.00 Ry     beta=0.35
     Davidson diagonalization with overlap
     ethr =  1.94E-07,  avg # of iterations =  2.9

     negative rho (up, down):  1.661E+00 1.669E+00

     total cpu time spent up to now is      714.7 secs

     total energy              =   -5978.17014720 Ry
     Harris-Foulkes estimate   =   -5978.17021273 Ry
     estimated scf accuracy    <       0.00159315 Ry

     total magnetization       =     0.09 Bohr mag/cell
     absolute magnetization    =     0.48 Bohr mag/cell

     iteration # 18     ecut=    45.00 Ry     beta=0.35
     Davidson diagonalization with overlap
     ethr =  1.84E-07,  avg # of iterations =  2.0

     negative rho (up, down):  1.662E+00 1.668E+00

     total cpu time spent up to now is      736.7 secs

     total energy              =   -5978.17036396 Ry
     Harris-Foulkes estimate   =   -5978.17027285 Ry
     estimated scf accuracy    <       0.00033740 Ry

     total magnetization       =     0.07 Bohr mag/cell
     absolute magnetization    =     0.41 Bohr mag/cell

     iteration # 19     ecut=    45.00 Ry     beta=0.35
     Davidson diagonalization with overlap
     ethr =  3.91E-08,  avg # of iterations =  3.0

     negative rho (up, down):  1.663E+00 1.667E+00

     total cpu time spent up to now is      766.0 secs

     total energy              =   -5978.17048499 Ry
     Harris-Foulkes estimate   =   -5978.17044771 Ry
     estimated scf accuracy    <       0.00078030 Ry

     total magnetization       =     0.05 Bohr mag/cell
     absolute magnetization    =     0.30 Bohr mag/cell

     iteration # 20     ecut=    45.00 Ry     beta=0.35
     Davidson diagonalization with overlap
     ethr =  3.91E-08,  avg # of iterations =  3.0

     negative rho (up, down):  1.664E+00 1.666E+00

     total cpu time spent up to now is      794.2 secs

     total energy              =   -5978.17058809 Ry
     Harris-Foulkes estimate   =   -5978.17055843 Ry
     estimated scf accuracy    <       0.00019786 Ry

     total magnetization       =     0.01 Bohr mag/cell
     absolute magnetization    =     0.17 Bohr mag/cell

     iteration # 21     ecut=    45.00 Ry     beta=0.35
     Davidson diagonalization with overlap
     ethr =  2.29E-08,  avg # of iterations =  3.0

     negative rho (up, down):  1.664E+00 1.666E+00

     total cpu time spent up to now is      821.9 secs

     total energy              =   -5978.17060269 Ry
     Harris-Foulkes estimate   =   -5978.17062522 Ry
     estimated scf accuracy    <       0.00013927 Ry

     total magnetization       =    -0.01 Bohr mag/cell
     absolute magnetization    =     0.07 Bohr mag/cell

     iteration # 22     ecut=    45.00 Ry     beta=0.35
     Davidson diagonalization with overlap
     ethr =  1.61E-08,  avg # of iterations =  2.7

     negative rho (up, down):  1.665E+00 1.665E+00

     total cpu time spent up to now is      847.2 secs

     total energy              =   -5978.17062410 Ry
     Harris-Foulkes estimate   =   -5978.17062153 Ry
     estimated scf accuracy    <       0.00004033 Ry

     total magnetization       =    -0.03 Bohr mag/cell
     absolute magnetization    =     0.05 Bohr mag/cell

     iteration # 23     ecut=    45.00 Ry     beta=0.35
     Davidson diagonalization with overlap
     ethr =  4.67E-09,  avg # of iterations =  3.0

     negative rho (up, down):  1.665E+00 1.665E+00

     total cpu time spent up to now is      876.6 secs

     total energy              =   -5978.17062720 Ry
     Harris-Foulkes estimate   =   -5978.17063218 Ry
     estimated scf accuracy    <       0.00003851 Ry

     total magnetization       =    -0.03 Bohr mag/cell
     absolute magnetization    =     0.05 Bohr mag/cell

     iteration # 24     ecut=    45.00 Ry     beta=0.35
     Davidson diagonalization with overlap
     ethr =  4.46E-09,  avg # of iterations =  2.1

     negative rho (up, down):  1.665E+00 1.665E+00

     total cpu time spent up to now is      901.0 secs

     total energy              =   -5978.17063253 Ry
     Harris-Foulkes estimate   =   -5978.17063081 Ry
     estimated scf accuracy    <       0.00000534 Ry

     total magnetization       =    -0.03 Bohr mag/cell
     absolute magnetization    =     0.06 Bohr mag/cell

     iteration # 25     ecut=    45.00 Ry     beta=0.35
     Davidson diagonalization with overlap
     ethr =  6.18E-10,  avg # of iterations =  3.0

     negative rho (up, down):  1.665E+00 1.665E+00

     total cpu time spent up to now is      929.0 secs

     total energy              =   -5978.17063621 Ry
     Harris-Foulkes estimate   =   -5978.17063344 Ry
     estimated scf accuracy    <       0.00000423 Ry

     total magnetization       =    -0.03 Bohr mag/cell
     absolute magnetization    =     0.06 Bohr mag/cell

     iteration # 26     ecut=    45.00 Ry     beta=0.35
     Davidson diagonalization with overlap
     ethr =  4.90E-10,  avg # of iterations =  3.0

     negative rho (up, down):  1.665E+00 1.665E+00

     total cpu time spent up to now is      956.0 secs

     total energy              =   -5978.17063737 Ry
     Harris-Foulkes estimate   =   -5978.17063697 Ry
     estimated scf accuracy    <       0.00000496 Ry

     total magnetization       =    -0.02 Bohr mag/cell
     absolute magnetization    =     0.04 Bohr mag/cell

     iteration # 27     ecut=    45.00 Ry     beta=0.35
     Davidson diagonalization with overlap
     ethr =  4.90E-10,  avg # of iterations =  2.9

     negative rho (up, down):  1.665E+00 1.665E+00

     total cpu time spent up to now is      981.9 secs

     total energy              =   -5978.17063757 Ry
     Harris-Foulkes estimate   =   -5978.17063808 Ry
     estimated scf accuracy    <       0.00000589 Ry

     total magnetization       =    -0.02 Bohr mag/cell
     absolute magnetization    =     0.04 Bohr mag/cell

     iteration # 28     ecut=    45.00 Ry     beta=0.35
     Davidson diagonalization with overlap
     ethr =  4.90E-10,  avg # of iterations =  3.0

     negative rho (up, down):  1.665E+00 1.665E+00

     total cpu time spent up to now is     1008.7 secs

     total energy              =   -5978.17063868 Ry
     Harris-Foulkes estimate   =   -5978.17063842 Ry
     estimated scf accuracy    <       0.00000623 Ry

     total magnetization       =    -0.01 Bohr mag/cell
     absolute magnetization    =     0.04 Bohr mag/cell

     iteration # 29     ecut=    45.00 Ry     beta=0.35
     Davidson diagonalization with overlap
     ethr =  4.90E-10,  avg # of iterations =  2.3

     negative rho (up, down):  1.665E+00 1.665E+00

     total cpu time spent up to now is     1033.4 secs

     total energy              =   -5978.17063941 Ry
     Harris-Foulkes estimate   =   -5978.17063927 Ry
     estimated scf accuracy    <       0.00000265 Ry

     total magnetization       =    -0.01 Bohr mag/cell
     absolute magnetization    =     0.03 Bohr mag/cell

     iteration # 30     ecut=    45.00 Ry     beta=0.35
     Davidson diagonalization with overlap
     ethr =  3.07E-10,  avg # of iterations =  2.0

     negative rho (up, down):  1.665E+00 1.665E+00
 
     Magnetic moment per site:
     atom:    1    charge:    9.0375    magn:   -0.0001    constr:    0.0000
     atom:    2    charge:    9.0517    magn:   -0.0002    constr:    0.0000
     atom:    3    charge:    9.0366    magn:   -0.0002    constr:    0.0000
     atom:    4    charge:    9.0514    magn:   -0.0001    constr:    0.0000
     atom:    5    charge:    9.0479    magn:   -0.0002    constr:    0.0000
     atom:    6    charge:    9.0475    magn:   -0.0002    constr:    0.0000
     atom:    7    charge:    9.0686    magn:   -0.0002    constr:    0.0000
     atom:    8    charge:    9.0540    magn:   -0.0002    constr:    0.0000
     atom:    9    charge:    9.0368    magn:   -0.0002    constr:    0.0000
     atom:   10    charge:    9.0505    magn:   -0.0001    constr:    0.0000
     atom:   11    charge:    9.0608    magn:   -0.0002    constr:    0.0000
     atom:   12    charge:    9.0742    magn:   -0.0002    constr:    0.0000
     atom:   13    charge:    9.0529    magn:   -0.0002    constr:    0.0000
     atom:   14    charge:    9.0301    magn:   -0.0002    constr:    0.0000
     atom:   15    charge:    9.0454    magn:   -0.0002    constr:    0.0000
     atom:   16    charge:    9.0493    magn:   -0.0002    constr:    0.0000
     atom:   17    charge:    9.0179    magn:   -0.0002    constr:    0.0000
     atom:   18    charge:    9.0655    magn:   -0.0002    constr:    0.0000
     atom:   19    charge:    9.0555    magn:   -0.0002    constr:    0.0000
     atom:   20    charge:    9.0216    magn:   -0.0001    constr:    0.0000
     atom:   21    charge:    9.0661    magn:   -0.0002    constr:    0.0000
     atom:   22    charge:    9.0793    magn:   -0.0002    constr:    0.0000
     atom:   23    charge:    9.0724    magn:   -0.0002    constr:    0.0000
     atom:   24    charge:    9.0541    magn:   -0.0002    constr:    0.0000
     atom:   25    charge:    9.0646    magn:   -0.0002    constr:    0.0000
     atom:   26    charge:    9.0321    magn:   -0.0002    constr:    0.0000
     atom:   27    charge:    9.0713    magn:   -0.0002    constr:    0.0000
     atom:   28    charge:    9.0448    magn:   -0.0001    constr:    0.0000
     atom:   29    charge:    9.0514    magn:   -0.0002    constr:    0.0000
     atom:   30    charge:    9.0593    magn:   -0.0002    constr:    0.0000
     atom:   31    charge:    9.0639    magn:   -0.0002    constr:    0.0000
     atom:   32    charge:    9.0438    magn:   -0.0001    constr:    0.0000
     atom:   33    charge:    9.0585    magn:   -0.0002    constr:    0.0000
     atom:   34    charge:    9.0607    magn:   -0.0002    constr:    0.0000
     atom:   35    charge:    9.0522    magn:   -0.0002    constr:    0.0000
     atom:   36    charge:    9.0386    magn:   -0.0001    constr:    0.0000
     atom:   37    charge:    9.0407    magn:   -0.0002    constr:    0.0000
     atom:   38    charge:    9.0374    magn:   -0.0002    constr:    0.0000
     atom:   39    charge:    9.0736    magn:   -0.0002    constr:    0.0000
     atom:   40    charge:    9.0252    magn:   -0.0002    constr:    0.0000
     atom:   41    charge:    9.0580    magn:   -0.0002    constr:    0.0000
     atom:   42    charge:    9.0354    magn:   -0.0001    constr:    0.0000
     atom:   43    charge:    9.0461    magn:   -0.0002    constr:    0.0000
     atom:   44    charge:    9.0468    magn:   -0.0002    constr:    0.0000
     atom:   45    charge:    9.0466    magn:   -0.0002    constr:    0.0000
     atom:   46    charge:    9.0470    magn:   -0.0001    constr:    0.0000
     atom:   47    charge:    9.0319    magn:   -0.0002    constr:    0.0000
     atom:   48    charge:    9.0316    magn:   -0.0002    constr:    0.0000
     atom:   49    charge:    9.0349    magn:   -0.0002    constr:    0.0000
     atom:   50    charge:    9.0558    magn:   -0.0002    constr:    0.0000
     atom:   51    charge:    9.0375    magn:   -0.0001    constr:    0.0000
     atom:   52    charge:    9.0669    magn:   -0.0002    constr:    0.0000
     atom:   53    charge:    9.0698    magn:   -0.0002    constr:    0.0000
     atom:   54    charge:    9.0500    magn:   -0.0002    constr:    0.0000
     atom:   55    charge:    1.7759    magn:    0.0001    constr:    0.0000
     atom:   56    charge:    1.7573    magn:    0.0001    constr:    0.0000
     atom:   57    charge:    1.7645    magn:    0.0001    constr:    0.0000
     atom:   58    charge:    1.7509    magn:    0.0001    constr:    0.0000
     atom:   59    charge:    1.7572    magn:    0.0001    constr:    0.0000
     atom:   60    charge:    1.7535    magn:    0.0001    constr:    0.0000
     atom:   61    charge:    1.7584    magn:    0.0001    constr:    0.0000
     atom:   62    charge:    1.7437    magn:    0.0001    constr:    0.0000
     atom:   63    charge:    1.7715    magn:    0.0001    constr:    0.0000
     atom:   64    charge:    1.7596    magn:    0.0001    constr:    0.0000
     atom:   65    charge:    1.7428    magn:    0.0001    constr:    0.0000
     atom:   66    charge:    1.7776    magn:    0.0001    constr:    0.0000
     atom:   67    charge:    1.7485    magn:    0.0001    constr:    0.0000
     atom:   68    charge:    1.7246    magn:    0.0001    constr:    0.0000
     atom:   69    charge:    1.7714    magn:    0.0001    constr:    0.0000
     atom:   70    charge:    1.7574    magn:    0.0001    constr:    0.0000
     atom:   71    charge:    1.7481    magn:    0.0001    constr:    0.0000
     atom:   72    charge:    1.7597    magn:    0.0001    constr:    0.0000
     atom:   73    charge:    1.7789    magn:    0.0001    constr:    0.0000
     atom:   74    charge:    1.7416    magn:    0.0001    constr:    0.0000
     atom:   75    charge:    1.7476    magn:    0.0001    constr:    0.0000
     atom:   76    charge:    1.7623    magn:    0.0001    constr:    0.0000
     atom:   77    charge:    1.7436    magn:    0.0001    constr:    0.0000
     atom:   78    charge:    1.7553    magn:    0.0001    constr:    0.0000
     atom:   79    charge:    1.7327    magn:    0.0001    constr:    0.0000
     atom:   80    charge:    1.7182    magn:    0.0001    constr:    0.0000
     atom:   81    charge:    1.7552    magn:    0.0001    constr:    0.0000
     atom:   82    charge:    1.7557    magn:    0.0001    constr:    0.0000
     atom:   83    charge:    1.7343    magn:    0.0001    constr:    0.0000
     atom:   84    charge:    1.7705    magn:    0.0001    constr:    0.0000
     atom:   85    charge:    1.7585    magn:    0.0001    constr:    0.0000
     atom:   86    charge:    1.7562    magn:    0.0001    constr:    0.0000
     atom:   87    charge:    1.7184    magn:    0.0001    constr:    0.0000
     atom:   88    charge:    1.7363    magn:    0.0001    constr:    0.0000
     atom:   89    charge:    1.7539    magn:    0.0001    constr:    0.0000
     atom:   90    charge:    1.7607    magn:    0.0001    constr:    0.0000
     atom:   91    charge:    1.7471    magn:    0.0001    constr:    0.0000
     atom:   92    charge:    1.7606    magn:    0.0001    constr:    0.0000
     atom:   93    charge:    1.7627    magn:    0.0001    constr:    0.0000
     atom:   94    charge:    1.7329    magn:    0.0001    constr:    0.0000
     atom:   95    charge:    1.7698    magn:    0.0001    constr:    0.0000
     atom:   96    charge:    1.7557    magn:    0.0001    constr:    0.0000
     atom:   97    charge:    1.7126    magn:    0.0001    constr:    0.0000
     atom:   98    charge:    1.7598    magn:    0.0001    constr:    0.0000
     atom:   99    charge:    1.7548    magn:    0.0001    constr:    0.0000
     atom:  100    charge:    1.7423    magn:    0.0001    constr:    0.0000
     atom:  101    charge:    1.7762    magn:    0.0001    constr:    0.0000
     atom:  102    charge:    1.7571    magn:    0.0001    constr:    0.0000
     atom:  103    charge:    1.7596    magn:    0.0001    constr:    0.0000
     atom:  104    charge:    1.7638    magn:    0.0001    constr:    0.0000
     atom:  105    charge:    1.7481    magn:    0.0001    constr:    0.0000
     atom:  106    charge:    1.7368    magn:    0.0001    constr:    0.0000
     atom:  107    charge:    1.7532    magn:    0.0001    constr:    0.0000
     atom:  108    charge:    1.7564    magn:    0.0001    constr:    0.0000

     total cpu time spent up to now is     1054.9 secs

     End of self-consistent calculation

 ------ SPIN UP ------------


          k = 0.0000 0.0000 0.0000 ( 65787 PWs)   bands (ev):

   -35.2001 -35.1926 -35.1819 -35.1797 -35.1655 -35.1635 -35.1630 -35.1575
   -35.1553 -35.1511 -35.1480 -35.1470 -35.1441 -35.1416 -35.1408 -35.1363
   -35.1336 -35.1330 -35.1310 -35.1278 -35.1248 -35.1237 -35.1216 -35.1191
   -35.1178 -35.1173 -35.1151 -35.1148 -35.1123 -35.1106 -35.1073 -35.1040
   -35.0991 -35.0989 -35.0967 -35.0929 -35.0915 -35.0903 -35.0832 -35.0800
   -35.0773 -35.0761 -35.0752 -35.0747 -35.0732 -35.0710 -35.0683 -35.0652
   -35.0594 -35.0515 -35.0453 -35.0423 -35.0246 -35.0130 -13.4406 -13.4395
   -13.4378 -13.4343 -13.4302 -13.4268 -13.4177 -13.4150 -13.4112 -13.4082
   -13.4074 -13.4015 -13.3995 -13.3973 -13.3944 -13.3935 -13.3922 -13.3908
   -13.3877 -13.3850 -13.3833 -13.3818 -13.3798 -13.3751 -13.3723 -13.3712
   -13.3689 -13.3682 -13.3645 -13.3629 -13.3613 -13.3574 -13.3565 -13.3543
   -13.3531 -13.3477 -13.3450 -13.3407 -13.3393 -13.3380 -13.3358 -13.3354
   -13.3320 -13.3300 -13.3250 -13.3238 -13.3234 -13.3201 -13.3189 -13.3155
   -13.3137 -13.3090 -13.3075 -13.3072 -13.3053 -13.3034 -13.2990 -13.2967
   -13.2952 -13.2931 -13.2888 -13.2869 -13.2826 -13.2682 -13.2639 -13.2613
   -13.2414 -13.2305 -13.2255 -13.2223 -13.2209 -13.2202 -13.2168 -13.2145
   -13.2134 -13.2106 -13.2099 -13.2066 -13.2057 -13.2027 -13.2014 -13.2008
   -13.1987 -13.1958 -13.1945 -13.1935 -13.1917 -13.1900 -13.1882 -13.1867
   -13.1846 -13.1820 -13.1815 -13.1798 -13.1781 -13.1742 -13.1726 -13.1704
   -13.1667 -13.1657 -13.1629 -13.1600 -13.1590 -13.1526 -13.1503 -13.1482
   -13.1467 -13.1453 -13.1441 -13.1410 -13.1387 -13.1379 -13.1356 -13.1309
   -13.1289 -13.1278 -13.1257 -13.1248 -13.1221 -13.1167 -13.1162 -13.1097
   -13.1071 -13.1040 -13.1020 -13.0988 -13.0968 -13.0949 -13.0902 -13.0893
   -13.0869 -13.0843 -13.0821 -13.0814 -13.0799 -13.0774 -13.0759 -13.0729
   -13.0719 -13.0709 -13.0686 -13.0652 -13.0623 -13.0613 -13.0592 -13.0571
   -13.0561 -13.0537 -13.0488 -13.0431 -13.0420 -13.0399 -13.0383 -13.0336
   -13.0293 -13.0277 -13.0166 -13.0155 -13.0089 -13.0036 -12.9978 -12.9771
     2.2235   2.5898   2.6752   3.0488   3.0824   3.1023   3.1606   3.2675
     3.3441   3.3906   3.4616   3.6308   3.7216   3.7738   3.7968   3.8626
     3.8773   3.9219   3.9703   4.0152   4.0420   4.0838   4.0957   4.1813
     4.2270   4.2689   4.3262   6.1079   6.1119   6.1370   6.1435   6.1736
     6.1795   6.2048   6.2360   6.2434   6.2753   6.2946   6.3183   6.3335
     6.3649   6.3962   6.4183   6.4422   6.4815   6.5021   6.5212   6.7137
     7.1831   7.1948   7.3584   7.3902   7.4125   7.4518   7.9726   7.9980
     8.0275   8.0349   8.6459   8.6642   8.6999   8.7223   8.8320   8.8407
     8.8882   8.9402   9.0058   9.0142   9.0343   9.0579   9.1662   9.1913
     9.2101   9.2225   9.2537   9.2625   9.2719   9.2767   9.2895   9.3083
     9.3272   9.3414   9.9046   9.9248   9.9285   9.9535   9.9542   9.9776
     9.9847  10.0110  10.1006  10.1348  10.1762  10.2163  10.2275  10.2311
    10.2464  10.2516  10.2651  10.2730  10.2774  10.2987  10.3033  10.3095
    10.3163  10.3338  10.3578  10.3634  10.4044  10.4133  10.4860  10.5174
    10.5306  10.5346  10.5537  10.6402  10.6452  10.6751  10.6914  10.7697
    10.8171  10.8245  10.8399  10.8515  10.8565  10.8848  10.9025  10.9156
    10.9357  10.9429  10.9500  10.9552  10.9719  10.9835  10.9913  10.9996
    11.0230  11.0375  11.0468  11.0927  11.1315  11.1369  11.1518  11.1690
    11.2315  11.2564  11.2687  11.2944  11.3027  11.3107  11.3234  11.3363
    11.3587  11.3754  11.3824  11.3994  11.4115  11.4945  11.6290  11.6416
    11.6713  11.6811  11.6981  11.7173  11.8798  11.8837  11.9156  11.9254
    11.9478  11.9543  11.9661  11.9835  12.0083  12.0224  12.0477  12.0771
    12.1335  12.1799  12.2066  12.2607  12.3070  12.3255  12.3643  12.3828
    12.4200  12.4395  12.4474  12.4718  12.4782  12.4854  12.5039  12.5169
    12.5840  12.6145  12.6403  12.6423  12.6589  12.6654  12.6796  12.7003
    12.8064  12.8204  12.8406  12.8524  12.8612  12.8699  12.8770  12.9039
    12.9095  13.2110  13.2619  13.2996  13.3266  13.7464  13.7578  13.7786
    13.7835  13.8271  13.8463  13.8708  13.8823  13.9365  13.9601  13.9742
    13.9977  14.0086  14.0274  14.0412  14.0649  14.0788  14.0946  14.1125
    14.1433  14.1904  14.1917  14.3913  14.4536  14.4690  14.4895  14.5303
    14.5449  14.6208  14.6674  14.7321  14.7682  14.7905  14.8054  14.8657
    14.9640  14.9716  14.9986  15.0161  15.0650  15.0758  15.1065  15.1170
    15.1471  15.1475  15.1741  15.1809  15.1989  15.2289  15.2351  15.2417
    15.2672  15.2781  15.2800  15.2994  15.3221  15.3805  15.4247  15.4503
    15.4590  15.4998  15.5077  15.5724  15.6082  15.6234  15.6397  15.6725
    15.7085  15.7203  15.7254  15.7480  15.7532  15.7639  15.7784  15.7968
    15.8049  15.8201  15.8342  15.8474  15.8573  15.8650  15.8748  15.8860
    15.8966  15.9242  15.9313  15.9319  15.9500  15.9647

     occupation numbers 
     1.0000   1.0000   1.0000   1.0000   1.0000   1.0000   1.0000   1.0000
     1.0000   1.0000   1.0000   1.0000   1.0000   1.0000   1.0000   1.0000
     1.0000   1.0000   1.0000   1.0000   1.0000   1.0000   1.0000   1.0000
     1.0000   1.0000   1.0000   1.0000   1.0000   1.0000   1.0000   1.0000
     1.0000   1.0000   1.0000   1.0000   1.0000   1.0000   1.0000   1.0000
     1.0000   1.0000   1.0000   1.0000   1.0000   1.0000   1.0000   1.0000
     1.0000   1.0000   1.0000   1.0000   1.0000   1.0000   1.0000   1.0000
     1.0000   1.0000   1.0000   1.0000   1.0000   1.0000   1.0000   1.0000
     1.0000   1.0000   1.0000   1.0000   1.0000   1.0000   1.0000   1.0000
     1.0000   1.0000   1.0000   1.0000   1.0000   1.0000   1.0000   1.0000
     1.0000   1.0000   1.0000   1.0000   1.0000   1.0000   1.0000   1.0000
     1.0000   1.0000   1.0000   1.0000   1.0000   1.0000   1.0000   1.0000
     1.0000   1.0000   1.0000   1.0000   1.0000   1.0000   1.0000   1.0000
     1.0000   1.0000   1.0000   1.0000   1.0000   1.0000   1.0000   1.0000
     1.0000   1.0000   1.0000   1.0000   1.0000   1.0000   1.0000   1.0000
     1.0000   1.0000   1.0000   1.0000   1.0000   1.0000   1.0000   1.0000
     1.0000   1.0000   1.0000   1.0000   1.0000   1.0000   1.0000   1.0000
     1.0000   1.0000   1.0000   1.0000   1.0000   1.0000   1.0000   1.0000
     1.0000   1.0000   1.0000   1.0000   1.0000   1.0000   1.0000   1.0000
     1.0000   1.0000   1.0000   1.0000   1.0000   1.0000   1.0000   1.0000
     1.0000   1.0000   1.0000   1.0000   1.0000   1.0000   1.0000   1.0000
     1.0000   1.0000   1.0000   1.0000   1.0000   1.0000   1.0000   1.0000
     1.0000   1.0000   1.0000   1.0000   1.0000   1.0000   1.0000   1.0000
     1.0000   1.0000   1.0000   1.0000   1.0000   1.0000   1.0000   1.0000
     1.0000   1.0000   1.0000   1.0000   1.0000   1.0000   1.0000   1.0000
     1.0000   1.0000   1.0000   1.0000   1.0000   1.0000   1.0000   1.0000
     1.0000   1.0000   1.0000   1.0000   1.0000   1.0000   1.0000   1.0000
     1.0000   1.0000   1.0000   1.0000   1.0000   1.0000   1.0000   1.0000
     1.0000   1.0000   1.0000   1.0000   1.0000   1.0000   1.0000   1.0000
     1.0000   1.0000   1.0000   1.0000   1.0000   1.0000   1.0000   1.0000
     1.0000   1.0000   1.0000   1.0000   1.0000   1.0000   1.0000   1.0000
     1.0000   1.0000   1.0000   1.0000   1.0000   1.0000   1.0000   1.0000
     1.0000   1.0000   1.0000   1.0000   1.0000   1.0000   1.0000   1.0000
     1.0000   1.0000   1.0000   1.0000   1.0000   1.0000   1.0000   1.0000
     1.0000   1.0000   1.0000   1.0000   1.0000   1.0000   1.0000   1.0000
     1.0000   1.0000   1.0000   1.0000   1.0000   1.0000   1.0000   1.0000
     1.0000   1.0000   1.0000   1.0000   1.0000   1.0000   1.0000   1.0000
     1.0000   1.0000   1.0000   1.0000   1.0000   1.0000   1.0000   1.0000
     1.0000   1.0000   1.0000   1.0000   1.0000   1.0000   1.0000   1.0000
     1.0000   1.0000   1.0000   1.0000   1.0000   1.0000   1.0000   1.0000
     1.0000   1.0000   1.0000   1.0000   1.0000   1.0000   1.0000   1.0000
     1.0000   1.0000   1.0000   1.0000   1.0000   1.0000   1.0000   1.0000
     1.0000   1.0000   1.0000   1.0000   1.0000   1.0000   1.0000   1.0000
     1.0000   1.0000   1.0000   1.0000   1.0000   1.0000   1.0000   1.0000
     1.0000   1.0000   1.0000   1.0000   1.0000   1.0000   1.0000   1.0000
     1.0000   1.0000   1.0000   1.0000   1.0000   1.0000   1.0000   1.0000
     1.0000   1.0000   1.0000   1.0000   1.0000   1.0000   1.0000   1.0000
     1.0000   1.0000   1.0000   1.0000   1.0000   1.0000   1.0000   1.0000
     1.0000   1.0000   1.0000   1.0000   1.0000   1.0000   1.0000   1.0000
     1.0000   1.0000   1.0000   1.0000   1.0000   1.0000   1.0000   1.0000
     1.0000   1.0000   1.0000   1.0000   1.0000   1.0000   1.0000   1.0000
     1.0000   1.0001   1.0001   1.0001   1.0002   1.0002   1.0003   1.0004
     1.0024   1.0030   1.0040   1.0048   1.0054   1.0061   1.0067   1.0095
     1.0101   1.0833   1.0717   1.0468   1.0189   0.1142   0.1018   0.0817
     0.0775   0.0469   0.0370   0.0270   0.0232   0.0108   0.0075   0.0060
     0.0041   0.0034   0.0025   0.0020   0.0013   0.0010   0.0007   0.0005
     0.0003   0.0001   0.0001   0.0000   0.0000   0.0000   0.0000   0.0000
     0.0000   0.0000   0.0000   0.0000   0.0000   0.0000   0.0000   0.0000
     0.0000   0.0000   0.0000   0.0000   0.0000   0.0000   0.0000   0.0000
     0.0000   0.0000   0.0000   0.0000   0.0000   0.0000   0.0000   0.0000
     0.0000   0.0000   0.0000   0.0000   0.0000   0.0000   0.0000   0.0000
     0.0000   0.0000   0.0000   0.0000   0.0000   0.0000   0.0000   0.0000
     0.0000   0.0000   0.0000   0.0000   0.0000   0.0000   0.0000   0.0000
     0.0000   0.0000   0.0000   0.0000   0.0000   0.0000   0.0000   0.0000
     0.0000   0.0000   0.0000   0.0000   0.0000   0.0000

          k = 0.0000-0.0536 0.1415 ( 65844 PWs)   bands (ev):

   -35.2001 -35.1926 -35.1820 -35.1797 -35.1654 -35.1636 -35.1632 -35.1574
   -35.1552 -35.1512 -35.1480 -35.1469 -35.1439 -35.1421 -35.1404 -35.1363
   -35.1337 -35.1331 -35.1308 -35.1278 -35.1248 -35.1238 -35.1218 -35.1190
   -35.1181 -35.1169 -35.1153 -35.1144 -35.1125 -35.1109 -35.1073 -35.1041
   -35.0991 -35.0989 -35.0966 -35.0929 -35.0915 -35.0903 -35.0832 -35.0799
   -35.0773 -35.0760 -35.0754 -35.0747 -35.0732 -35.0711 -35.0682 -35.0654
   -35.0594 -35.0515 -35.0453 -35.0423 -35.0246 -35.0130 -13.4400 -13.4378
   -13.4366 -13.4339 -13.4266 -13.4223 -13.4201 -13.4170 -13.4131 -13.4086
   -13.4066 -13.4025 -13.4014 -13.3994 -13.3967 -13.3946 -13.3925 -13.3914
   -13.3894 -13.3863 -13.3831 -13.3818 -13.3784 -13.3770 -13.3739 -13.3722
   -13.3697 -13.3661 -13.3640 -13.3615 -13.3589 -13.3557 -13.3541 -13.3536
   -13.3515 -13.3483 -13.3469 -13.3455 -13.3415 -13.3397 -13.3376 -13.3361
   -13.3328 -13.3315 -13.3277 -13.3263 -13.3238 -13.3216 -13.3198 -13.3179
   -13.3159 -13.3139 -13.3108 -13.3094 -13.3063 -13.3025 -13.2913 -13.2883
   -13.2865 -13.2839 -13.2800 -13.2767 -13.2729 -13.2698 -13.2601 -13.2593
   -13.2431 -13.2347 -13.2299 -13.2242 -13.2232 -13.2199 -13.2184 -13.2151
   -13.2138 -13.2128 -13.2110 -13.2088 -13.2075 -13.2052 -13.2034 -13.2014
   -13.2000 -13.1967 -13.1964 -13.1954 -13.1938 -13.1902 -13.1887 -13.1857
   -13.1846 -13.1828 -13.1821 -13.1797 -13.1781 -13.1761 -13.1740 -13.1697
   -13.1673 -13.1649 -13.1621 -13.1601 -13.1577 -13.1534 -13.1531 -13.1490
   -13.1461 -13.1448 -13.1435 -13.1410 -13.1405 -13.1371 -13.1359 -13.1341
   -13.1309 -13.1286 -13.1262 -13.1235 -13.1207 -13.1174 -13.1106 -13.1090
   -13.1059 -13.1028 -13.1006 -13.0981 -13.0955 -13.0938 -13.0909 -13.0891
   -13.0861 -13.0843 -13.0836 -13.0811 -13.0793 -13.0762 -13.0761 -13.0725
   -13.0705 -13.0695 -13.0668 -13.0644 -13.0627 -13.0597 -13.0586 -13.0557
   -13.0547 -13.0526 -13.0491 -13.0441 -13.0418 -13.0401 -13.0373 -13.0349
   -13.0312 -13.0291 -13.0210 -13.0154 -13.0089 -13.0049 -12.9965 -12.9774
     2.2431   2.5107   2.7365   3.0331   3.0734   3.1249   3.1762   3.2604
     3.3459   3.3955   3.4729   3.5974   3.6778   3.7839   3.8282   3.8567
     3.8792   3.9186   3.9820   4.0231   4.0406   4.0800   4.1266   4.1749
     4.2216   4.2621   4.3209   6.0340   6.1114   6.1268   6.1618   6.1800
     6.1896   6.2173   6.2427   6.2731   6.2780   6.3052   6.3292   6.3404
     6.3615   6.3935   6.4062   6.4292   6.4498   6.5242   6.5480   6.6886
     7.1769   7.1918   7.2838   7.3040   7.5361   7.5675   7.8356   7.8596
     8.2044   8.2407   8.4202   8.4480   8.8199   8.8432   8.8596   8.8866
     8.8987   8.9255   9.0184   9.0222   9.0425   9.0619   9.1816   9.1908
     9.2032   9.2124   9.2510   9.2613   9.2852   9.2968   9.3397   9.3450
     9.3802   9.3945   9.8123   9.8238   9.8372   9.8544   9.8879   9.9028
     9.9099   9.9287  10.1064  10.1320  10.1387  10.1761  10.1886  10.2143
    10.2241  10.2382  10.2446  10.2752  10.2809  10.3240  10.3898  10.4014
    10.4104  10.4296  10.4362  10.4561  10.4679  10.4807  10.4840  10.5057
    10.5242  10.5760  10.5926  10.6115  10.6189  10.6478  10.6641  10.7551
    10.7891  10.8112  10.8254  10.8324  10.8592  10.8704  10.8969  10.9053
    10.9299  10.9361  10.9470  10.9560  10.9723  10.9847  10.9924  11.0040
    11.0204  11.0346  11.0462  11.1092  11.1231  11.1397  11.1584  11.1694
    11.1738  11.2107  11.2278  11.2392  11.2814  11.3181  11.3278  11.3395
    11.3709  11.4304  11.4610  11.4763  11.5032  11.5242  11.5841  11.6087
    11.6677  11.7067  11.7184  11.7451  11.8727  11.8924  11.9101  11.9293
    11.9502  11.9720  11.9767  11.9862  12.0036  12.0359  12.0605  12.0782
    12.1154  12.1810  12.2149  12.2482  12.2569  12.2844  12.3115  12.3612
    12.3936  12.4192  12.4262  12.4448  12.5069  12.5139  12.5321  12.5434
    12.5964  12.6155  12.6234  12.6485  12.6535  12.6688  12.6777  12.6964
    12.7109  12.7166  12.7956  12.8450  12.8547  12.8679  12.8877  13.0739
    13.0895  13.1836  13.2294  13.2783  13.3010  13.5301  13.5640  13.7175
    13.7550  13.8348  13.8610  13.9008  13.9267  13.9499  13.9552  13.9892
    14.0360  14.0534  14.0878  14.1230  14.1343  14.1717  14.2191  14.2700
    14.2998  14.3065  14.3393  14.3707  14.3967  14.5039  14.5519  14.6019
    14.6151  14.6286  14.6659  14.6780  14.7071  14.7542  14.8108  14.8320
    14.8415  14.8789  14.8879  14.9315  14.9428  14.9684  14.9766  15.0031
    15.0935  15.1240  15.1547  15.2042  15.2347  15.2532  15.2832  15.3324
    15.3497  15.3589  15.3763  15.3865  15.4115  15.4341  15.4421  15.4682
    15.4765  15.4965  15.5063  15.5189  15.5385  15.5720  15.5895  15.5993
    15.6273  15.6452  15.6895  15.7163  15.7211  15.7520  15.7748  15.7878
    15.8038  15.8213  15.8376  15.8554  15.8655  15.8827  15.8927  15.9050
    15.9218  15.9299  15.9588  15.9650  15.9765  16.0068

     occupation numbers 
     1.0000   1.0000   1.0000   1.0000   1.0000   1.0000   1.0000   1.0000
     1.0000   1.0000   1.0000   1.0000   1.0000   1.0000   1.0000   1.0000
     1.0000   1.0000   1.0000   1.0000   1.0000   1.0000   1.0000   1.0000
     1.0000   1.0000   1.0000   1.0000   1.0000   1.0000   1.0000   1.0000
     1.0000   1.0000   1.0000   1.0000   1.0000   1.0000   1.0000   1.0000
     1.0000   1.0000   1.0000   1.0000   1.0000   1.0000   1.0000   1.0000
     1.0000   1.0000   1.0000   1.0000   1.0000   1.0000   1.0000   1.0000
     1.0000   1.0000   1.0000   1.0000   1.0000   1.0000   1.0000   1.0000
     1.0000   1.0000   1.0000   1.0000   1.0000   1.0000   1.0000   1.0000
     1.0000   1.0000   1.0000   1.0000   1.0000   1.0000   1.0000   1.0000
     1.0000   1.0000   1.0000   1.0000   1.0000   1.0000   1.0000   1.0000
     1.0000   1.0000   1.0000   1.0000   1.0000   1.0000   1.0000   1.0000
     1.0000   1.0000   1.0000   1.0000   1.0000   1.0000   1.0000   1.0000
     1.0000   1.0000   1.0000   1.0000   1.0000   1.0000   1.0000   1.0000
     1.0000   1.0000   1.0000   1.0000   1.0000   1.0000   1.0000   1.0000
     1.0000   1.0000   1.0000   1.0000   1.0000   1.0000   1.0000   1.0000
     1.0000   1.0000   1.0000   1.0000   1.0000   1.0000   1.0000   1.0000
     1.0000   1.0000   1.0000   1.0000   1.0000   1.0000   1.0000   1.0000
     1.0000   1.0000   1.0000   1.0000   1.0000   1.0000   1.0000   1.0000
     1.0000   1.0000   1.0000   1.0000   1.0000   1.0000   1.0000   1.0000
     1.0000   1.0000   1.0000   1.0000   1.0000   1.0000   1.0000   1.0000
     1.0000   1.0000   1.0000   1.0000   1.0000   1.0000   1.0000   1.0000
     1.0000   1.0000   1.0000   1.0000   1.0000   1.0000   1.0000   1.0000
     1.0000   1.0000   1.0000   1.0000   1.0000   1.0000   1.0000   1.0000
     1.0000   1.0000   1.0000   1.0000   1.0000   1.0000   1.0000   1.0000
     1.0000   1.0000   1.0000   1.0000   1.0000   1.0000   1.0000   1.0000
     1.0000   1.0000   1.0000   1.0000   1.0000   1.0000   1.0000   1.0000
     1.0000   1.0000   1.0000   1.0000   1.0000   1.0000   1.0000   1.0000
     1.0000   1.0000   1.0000   1.0000   1.0000   1.0000   1.0000   1.0000
     1.0000   1.0000   1.0000   1.0000   1.0000   1.0000   1.0000   1.0000
     1.0000   1.0000   1.0000   1.0000   1.0000   1.0000   1.0000   1.0000
     1.0000   1.0000   1.0000   1.0000   1.0000   1.0000   1.0000   1.0000
     1.0000   1.0000   1.0000   1.0000   1.0000   1.0000   1.0000   1.0000
     1.0000   1.0000   1.0000   1.0000   1.0000   1.0000   1.0000   1.0000
     1.0000   1.0000   1.0000   1.0000   1.0000   1.0000   1.0000   1.0000
     1.0000   1.0000   1.0000   1.0000   1.0000   1.0000   1.0000   1.0000
     1.0000   1.0000   1.0000   1.0000   1.0000   1.0000   1.0000   1.0000
     1.0000   1.0000   1.0000   1.0000   1.0000   1.0000   1.0000   1.0000
     1.0000   1.0000   1.0000   1.0000   1.0000   1.0000   1.0000   1.0000
     1.0000   1.0000   1.0000   1.0000   1.0000   1.0000   1.0000   1.0000
     1.0000   1.0000   1.0000   1.0000   1.0000   1.0000   1.0000   1.0000
     1.0000   1.0000   1.0000   1.0000   1.0000   1.0000   1.0000   1.0000
     1.0000   1.0000   1.0000   1.0000   1.0000   1.0000   1.0000   1.0000
     1.0000   1.0000   1.0000   1.0000   1.0000   1.0000   1.0000   1.0000
     1.0000   1.0000   1.0000   1.0000   1.0000   1.0000   1.0000   1.0000
     1.0000   1.0000   1.0000   1.0000   1.0000   1.0000   1.0000   1.0000
     1.0000   1.0000   1.0000   1.0000   1.0000   1.0000   1.0000   1.0000
     1.0000   1.0000   1.0000   1.0000   1.0000   1.0000   1.0000   1.0000
     1.0000   1.0000   1.0000   1.0000   1.0000   1.0000   1.0000   1.0000
     1.0000   1.0000   1.0000   1.0000   1.0000   1.0000   1.0000   1.0000
     1.0000   1.0000   1.0000   1.0000   1.0000   1.0000   1.0000   1.0000
     1.0001   1.0001   1.0001   1.0001   1.0002   1.0002   1.0003   1.0004
     1.0005   1.0005   1.0020   1.0043   1.0049   1.0059   1.0077   1.0500
     1.0554   1.0817   1.0816   1.0628   1.0456   0.5655   0.4731   0.1510
     0.1048   0.0427   0.0307   0.0180   0.0124   0.0088   0.0081   0.0047
     0.0021   0.0016   0.0008   0.0004   0.0003   0.0002   0.0001   0.0000
     0.0000   0.0000   0.0000   0.0000   0.0000   0.0000   0.0000   0.0000
     0.0000   0.0000   0.0000   0.0000   0.0000   0.0000   0.0000   0.0000
     0.0000   0.0000   0.0000   0.0000   0.0000   0.0000   0.0000   0.0000
     0.0000   0.0000   0.0000   0.0000   0.0000   0.0000   0.0000   0.0000
     0.0000   0.0000   0.0000   0.0000   0.0000   0.0000   0.0000   0.0000
     0.0000   0.0000   0.0000   0.0000   0.0000   0.0000   0.0000   0.0000
[...]
    11.7065  11.7240  11.7443  11.8591  11.9024  11.9845  12.0007  12.0251
    12.0389  12.0592  12.0698  12.0856  12.0952  12.1091  12.1318  12.1519
    12.1742  12.1888  12.2043  12.2184  12.2424  12.2836  12.3058  12.3245
    12.3401  12.3536  12.3851  12.4086  12.4729  12.4879  12.5483  12.5609
    12.6147  12.6316  12.6852  12.7250  12.7465  12.7912  12.8120  12.8248
    12.8482  12.8812  12.9416  12.9684  13.0399  13.0786  13.1211  13.1567
    13.2449  13.2663  13.2877  13.3365  13.3745  13.4086  13.4418  13.4770
    13.6346  13.6911  13.7135  13.7260  13.7546  13.8503  13.8907  13.9396
    13.9691  14.0009  14.0383  14.0702  14.0912  14.1293  14.2300  14.2841
    14.3013  14.3250  14.3435  14.4006  14.4430  14.4898  14.5179  14.5576
    14.5859  14.5911  14.6231  14.6488  14.6676  14.6904  14.7177  14.7240
    14.7667  14.8555  14.9126  14.9248  14.9742  14.9896  15.0079  15.0321
    15.0553  15.0761  15.0922  15.1203  15.1492  15.1610  15.1988  15.2323
    15.2445  15.2889  15.3179  15.3531  15.4359  15.4705  15.5156  15.5362
    15.5566  15.5654  15.5975  15.6128  15.6399  15.7003  15.7443  15.7619
    15.7812  15.8033  15.8243  15.8604  15.8793  15.9006  15.9369  15.9859
    16.0020  16.0241  16.0447  16.0613  16.0777  16.0986  16.1188  16.1241
    16.1370  16.1716  16.1839  16.1916  16.2102  16.2199

     occupation numbers 
     1.0000   1.0000   1.0000   1.0000   1.0000   1.0000   1.0000   1.0000
     1.0000   1.0000   1.0000   1.0000   1.0000   1.0000   1.0000   1.0000
     1.0000   1.0000   1.0000   1.0000   1.0000   1.0000   1.0000   1.0000
     1.0000   1.0000   1.0000   1.0000   1.0000   1.0000   1.0000   1.0000
     1.0000   1.0000   1.0000   1.0000   1.0000   1.0000   1.0000   1.0000
     1.0000   1.0000   1.0000   1.0000   1.0000   1.0000   1.0000   1.0000
     1.0000   1.0000   1.0000   1.0000   1.0000   1.0000   1.0000   1.0000
     1.0000   1.0000   1.0000   1.0000   1.0000   1.0000   1.0000   1.0000
     1.0000   1.0000   1.0000   1.0000   1.0000   1.0000   1.0000   1.0000
     1.0000   1.0000   1.0000   1.0000   1.0000   1.0000   1.0000   1.0000
     1.0000   1.0000   1.0000   1.0000   1.0000   1.0000   1.0000   1.0000
     1.0000   1.0000   1.0000   1.0000   1.0000   1.0000   1.0000   1.0000
     1.0000   1.0000   1.0000   1.0000   1.0000   1.0000   1.0000   1.0000
     1.0000   1.0000   1.0000   1.0000   1.0000   1.0000   1.0000   1.0000
     1.0000   1.0000   1.0000   1.0000   1.0000   1.0000   1.0000   1.0000
     1.0000   1.0000   1.0000   1.0000   1.0000   1.0000   1.0000   1.0000
     1.0000   1.0000   1.0000   1.0000   1.0000   1.0000   1.0000   1.0000
     1.0000   1.0000   1.0000   1.0000   1.0000   1.0000   1.0000   1.0000
     1.0000   1.0000   1.0000   1.0000   1.0000   1.0000   1.0000   1.0000
     1.0000   1.0000   1.0000   1.0000   1.0000   1.0000   1.0000   1.0000
     1.0000   1.0000   1.0000   1.0000   1.0000   1.0000   1.0000   1.0000
     1.0000   1.0000   1.0000   1.0000   1.0000   1.0000   1.0000   1.0000
     1.0000   1.0000   1.0000   1.0000   1.0000   1.0000   1.0000   1.0000
     1.0000   1.0000   1.0000   1.0000   1.0000   1.0000   1.0000   1.0000
     1.0000   1.0000   1.0000   1.0000   1.0000   1.0000   1.0000   1.0000
     1.0000   1.0000   1.0000   1.0000   1.0000   1.0000   1.0000   1.0000
     1.0000   1.0000   1.0000   1.0000   1.0000   1.0000   1.0000   1.0000
     1.0000   1.0000   1.0000   1.0000   1.0000   1.0000   1.0000   1.0000
     1.0000   1.0000   1.0000   1.0000   1.0000   1.0000   1.0000   1.0000
     1.0000   1.0000   1.0000   1.0000   1.0000   1.0000   1.0000   1.0000
     1.0000   1.0000   1.0000   1.0000   1.0000   1.0000   1.0000   1.0000
     1.0000   1.0000   1.0000   1.0000   1.0000   1.0000   1.0000   1.0000
     1.0000   1.0000   1.0000   1.0000   1.0000   1.0000   1.0000   1.0000
     1.0000   1.0000   1.0000   1.0000   1.0000   1.0000   1.0000   1.0000
     1.0000   1.0000   1.0000   1.0000   1.0000   1.0000   1.0000   1.0000
     1.0000   1.0000   1.0000   1.0000   1.0000   1.0000   1.0000   1.0000
     1.0000   1.0000   1.0000   1.0000   1.0000   1.0000   1.0000   1.0000
     1.0000   1.0000   1.0000   1.0000   1.0000   1.0000   1.0000   1.0000
     1.0000   1.0000   1.0000   1.0000   1.0000   1.0000   1.0000   1.0000
     1.0000   1.0000   1.0000   1.0000   1.0000   1.0000   1.0000   1.0000
     1.0000   1.0000   1.0000   1.0000   1.0000   1.0000   1.0000   1.0000
     1.0000   1.0000   1.0000   1.0000   1.0000   1.0000   1.0000   1.0000
     1.0000   1.0000   1.0000   1.0000   1.0000   1.0000   1.0000   1.0000
     1.0000   1.0000   1.0000   1.0000   1.0000   1.0000   1.0000   1.0000
     1.0000   1.0000   1.0000   1.0000   1.0000   1.0000   1.0000   1.0000
     1.0000   1.0000   1.0000   1.0000   1.0000   1.0000   1.0000   1.0000
     1.0000   1.0000   1.0000   1.0000   1.0000   1.0000   1.0000   1.0000
     1.0000   1.0000   1.0000   1.0000   1.0000   1.0000   1.0000   1.0000
     1.0000   1.0000   1.0000   1.0000   1.0000   1.0000   1.0000   1.0000
     1.0000   1.0000   1.0000   1.0000   1.0000   1.0000   1.0000   1.0000
     1.0000   1.0000   1.0000   1.0000   1.0000   1.0000   1.0000   1.0000
     1.0001   1.0001   1.0003   1.0006   1.0009   1.0019   1.0026   1.0032
     1.0045   1.0071   1.0148   1.0199   1.0388   1.0516   1.0661   1.0764
     1.0781   1.0695   1.0564   1.0065   0.9472   0.8796   0.8023   0.7115
     0.3001   0.1914   0.1567   0.1394   0.1051   0.0352   0.0207   0.0103
     0.0065   0.0039   0.0021   0.0012   0.0008   0.0004   0.0000   0.0000
     0.0000   0.0000   0.0000   0.0000   0.0000   0.0000   0.0000   0.0000
     0.0000   0.0000   0.0000   0.0000   0.0000   0.0000   0.0000   0.0000
     0.0000   0.0000   0.0000   0.0000   0.0000   0.0000   0.0000   0.0000
     0.0000   0.0000   0.0000   0.0000   0.0000   0.0000   0.0000   0.0000
     0.0000   0.0000   0.0000   0.0000   0.0000   0.0000   0.0000   0.0000
     0.0000   0.0000   0.0000   0.0000   0.0000   0.0000   0.0000   0.0000
     0.0000   0.0000   0.0000   0.0000   0.0000   0.0000   0.0000   0.0000
     0.0000   0.0000   0.0000   0.0000   0.0000   0.0000   0.0000   0.0000
     0.0000   0.0000   0.0000   0.0000   0.0000   0.0000

          k = 0.3333 0.6411-0.2830 ( 65863 PWs)   bands (ev):

   -35.2001 -35.1927 -35.1819 -35.1798 -35.1660 -35.1641 -35.1627 -35.1575
   -35.1556 -35.1519 -35.1489 -35.1461 -35.1445 -35.1417 -35.1407 -35.1376
   -35.1334 -35.1332 -35.1310 -35.1282 -35.1255 -35.1233 -35.1217 -35.1197
   -35.1176 -35.1167 -35.1148 -35.1141 -35.1129 -35.1116 -35.1076 -35.1039
   -35.0996 -35.0992 -35.0968 -35.0933 -35.0919 -35.0898 -35.0835 -35.0807
   -35.0779 -35.0761 -35.0753 -35.0745 -35.0734 -35.0713 -35.0684 -35.0655
   -35.0597 -35.0517 -35.0455 -35.0425 -35.0249 -35.0132 -13.4480 -13.4429
   -13.4399 -13.4388 -13.4335 -13.4260 -13.4237 -13.4212 -13.4179 -13.4149
   -13.4139 -13.4122 -13.4088 -13.4056 -13.4044 -13.4008 -13.3989 -13.3977
   -13.3943 -13.3917 -13.3906 -13.3890 -13.3866 -13.3827 -13.3809 -13.3789
   -13.3778 -13.3758 -13.3730 -13.3710 -13.3702 -13.3662 -13.3645 -13.3624
   -13.3580 -13.3562 -13.3516 -13.3470 -13.3454 -13.3373 -13.3247 -13.3229
   -13.3171 -13.3116 -13.3074 -13.3050 -13.3026 -13.2988 -13.2967 -13.2956
   -13.2923 -13.2903 -13.2864 -13.2830 -13.2782 -13.2757 -13.2731 -13.2710
   -13.2695 -13.2674 -13.2632 -13.2610 -13.2584 -13.2537 -13.2506 -13.2491
   -13.2476 -13.2436 -13.2393 -13.2359 -13.2356 -13.2327 -13.2306 -13.2288
   -13.2266 -13.2249 -13.2225 -13.2194 -13.2169 -13.2160 -13.2125 -13.2109
   -13.2084 -13.2072 -13.2019 -13.1984 -13.1961 -13.1938 -13.1908 -13.1897
   -13.1883 -13.1858 -13.1844 -13.1819 -13.1793 -13.1782 -13.1752 -13.1708
   -13.1687 -13.1673 -13.1654 -13.1616 -13.1603 -13.1580 -13.1557 -13.1518
   -13.1502 -13.1468 -13.1441 -13.1412 -13.1389 -13.1362 -13.1343 -13.1299
   -13.1282 -13.1267 -13.1232 -13.1211 -13.1207 -13.1175 -13.1146 -13.1108
   -13.1097 -13.1084 -13.1050 -13.1035 -13.1007 -13.0995 -13.0969 -13.0947
   -13.0912 -13.0891 -13.0875 -13.0848 -13.0833 -13.0810 -13.0786 -13.0776
   -13.0756 -13.0703 -13.0683 -13.0659 -13.0619 -13.0604 -13.0571 -13.0540
   -13.0510 -13.0487 -13.0467 -13.0430 -13.0403 -13.0359 -13.0339 -13.0284
   -13.0264 -13.0252 -13.0200 -13.0150 -13.0123 -13.0054 -12.9991 -12.9777
     2.5988   2.6436   2.7573   2.8530   2.9397   3.0143   3.0401   3.0596
     3.1619   3.2292   3.3817   3.4158   3.4924   3.5309   3.6281   3.7343
     3.7529   3.9141   4.3758   4.4013   4.5042   4.5788   4.6836   4.6949
     4.7275   4.7465   4.8415   5.2812   5.3130   5.3797   5.3983   5.4267
     5.4809   5.5088   5.5999   5.6615   6.4203   6.4875   6.6371   6.6743
     6.7015   6.7545   6.7741   6.8192   6.8445   6.8670   6.9506   6.9660
     7.0053   7.0596   7.0924   7.4758   7.6269   7.7679   8.1931   8.4120
     8.5310   8.5650   8.5796   8.6044   8.6364   8.6842   8.7243   8.7425
     8.8200   8.8449   8.9588   9.0958   9.1710   9.2369   9.2443   9.3360
     9.3803   9.4311   9.4368   9.4626   9.4969   9.5381   9.5656   9.5918
     9.6092   9.6211   9.6590   9.6871   9.6985   9.7347   9.7580   9.7880
     9.8320   9.9296   9.9509   9.9606   9.9862  10.0212  10.0340  10.0905
    10.0989  10.1058  10.1263  10.1429  10.1503  10.1821  10.1945  10.2150
    10.2233  10.2491  10.2586  10.2812  10.2967  10.3184  10.3451  10.3557
    10.4162  10.4255  10.4491  10.4874  10.5148  10.5899  10.6208  10.6324
    10.6563  10.6645  10.6755  10.6941  10.7048  10.7196  10.7305  10.7498
    10.7634  10.7859  10.8270  10.8449  10.8863  10.8894  10.9493  10.9644
    10.9962  11.0019  11.0312  11.0601  11.0781  11.0911  11.1185  11.1434
    11.1772  11.1919  11.2491  11.2845  11.3162  11.4172  11.5058  11.5241
    11.5369  11.5524  11.5763  11.5928  11.6068  11.6166  11.6367  11.6513
    11.7294  11.7685  11.7891  11.8575  11.8830  11.9323  11.9381  11.9790
    12.0430  12.0576  12.0657  12.0748  12.1021  12.1149  12.1445  12.1614
    12.1895  12.2011  12.2304  12.2683  12.2870  12.2991  12.3129  12.3229
    12.3499  12.3598  12.3853  12.3890  12.4187  12.4705  12.5211  12.5832
    12.6275  12.6701  12.6904  12.7148  12.7416  12.7749  12.7812  12.8043
    12.8170  12.8852  12.9858  13.0102  13.0263  13.0651  13.0981  13.1385
    13.1778  13.2271  13.3340  13.3786  13.4107  13.4483  13.4819  13.5210
    13.6087  13.6285  13.7594  13.7830  13.8213  13.8388  13.8500  13.8934
    13.9224  13.9766  14.0289  14.0380  14.0737  14.1004  14.1978  14.2169
    14.2947  14.3420  14.3624  14.4242  14.4515  14.4699  14.5407  14.5563
    14.5945  14.6099  14.6339  14.6506  14.6851  14.6888  14.7803  14.8044
    14.8366  14.8594  14.9017  14.9203  14.9491  14.9823  15.0057  15.0220
    15.0393  15.0534  15.0762  15.0989  15.1018  15.1315  15.1867  15.2482
    15.2558  15.2976  15.3400  15.3757  15.3861  15.4107  15.4670  15.5299
    15.5630  15.5958  15.6091  15.6620  15.6918  15.7169  15.7231  15.7586
    15.7724  15.8376  15.8478  15.8939  15.9145  15.9386  15.9625  15.9704
    15.9955  16.0049  16.0139  16.0257  16.0606  16.0749  16.1036  16.1143
    16.1321  16.1541  16.1807  16.1979  16.2162  16.2275

     occupation numbers 
     1.0000   1.0000   1.0000   1.0000   1.0000   1.0000   1.0000   1.0000
     1.0000   1.0000   1.0000   1.0000   1.0000   1.0000   1.0000   1.0000
     1.0000   1.0000   1.0000   1.0000   1.0000   1.0000   1.0000   1.0000
     1.0000   1.0000   1.0000   1.0000   1.0000   1.0000   1.0000   1.0000
     1.0000   1.0000   1.0000   1.0000   1.0000   1.0000   1.0000   1.0000
     1.0000   1.0000   1.0000   1.0000   1.0000   1.0000   1.0000   1.0000
     1.0000   1.0000   1.0000   1.0000   1.0000   1.0000   1.0000   1.0000
     1.0000   1.0000   1.0000   1.0000   1.0000   1.0000   1.0000   1.0000
     1.0000   1.0000   1.0000   1.0000   1.0000   1.0000   1.0000   1.0000
     1.0000   1.0000   1.0000   1.0000   1.0000   1.0000   1.0000   1.0000
     1.0000   1.0000   1.0000   1.0000   1.0000   1.0000   1.0000   1.0000
     1.0000   1.0000   1.0000   1.0000   1.0000   1.0000   1.0000   1.0000
     1.0000   1.0000   1.0000   1.0000   1.0000   1.0000   1.0000   1.0000
     1.0000   1.0000   1.0000   1.0000   1.0000   1.0000   1.0000   1.0000
     1.0000   1.0000   1.0000   1.0000   1.0000   1.0000   1.0000   1.0000
     1.0000   1.0000   1.0000   1.0000   1.0000   1.0000   1.0000   1.0000
     1.0000   1.0000   1.0000   1.0000   1.0000   1.0000   1.0000   1.0000
     1.0000   1.0000   1.0000   1.0000   1.0000   1.0000   1.0000   1.0000
     1.0000   1.0000   1.0000   1.0000   1.0000   1.0000   1.0000   1.0000
     1.0000   1.0000   1.0000   1.0000   1.0000   1.0000   1.0000   1.0000
     1.0000   1.0000   1.0000   1.0000   1.0000   1.0000   1.0000   1.0000
     1.0000   1.0000   1.0000   1.0000   1.0000   1.0000   1.0000   1.0000
     1.0000   1.0000   1.0000   1.0000   1.0000   1.0000   1.0000   1.0000
     1.0000   1.0000   1.0000   1.0000   1.0000   1.0000   1.0000   1.0000
     1.0000   1.0000   1.0000   1.0000   1.0000   1.0000   1.0000   1.0000
     1.0000   1.0000   1.0000   1.0000   1.0000   1.0000   1.0000   1.0000
     1.0000   1.0000   1.0000   1.0000   1.0000   1.0000   1.0000   1.0000
     1.0000   1.0000   1.0000   1.0000   1.0000   1.0000   1.0000   1.0000
     1.0000   1.0000   1.0000   1.0000   1.0000   1.0000   1.0000   1.0000
     1.0000   1.0000   1.0000   1.0000   1.0000   1.0000   1.0000   1.0000
     1.0000   1.0000   1.0000   1.0000   1.0000   1.0000   1.0000   1.0000
     1.0000   1.0000   1.0000   1.0000   1.0000   1.0000   1.0000   1.0000
     1.0000   1.0000   1.0000   1.0000   1.0000   1.0000   1.0000   1.0000
     1.0000   1.0000   1.0000   1.0000   1.0000   1.0000   1.0000   1.0000
     1.0000   1.0000   1.0000   1.0000   1.0000   1.0000   1.0000   1.0000
     1.0000   1.0000   1.0000   1.0000   1.0000   1.0000   1.0000   1.0000
     1.0000   1.0000   1.0000   1.0000   1.0000   1.0000   1.0000   1.0000
     1.0000   1.0000   1.0000   1.0000   1.0000   1.0000   1.0000   1.0000
     1.0000   1.0000   1.0000   1.0000   1.0000   1.0000   1.0000   1.0000
     1.0000   1.0000   1.0000   1.0000   1.0000   1.0000   1.0000   1.0000
     1.0000   1.0000   1.0000   1.0000   1.0000   1.0000   1.0000   1.0000
     1.0000   1.0000   1.0000   1.0000   1.0000   1.0000   1.0000   1.0000
     1.0000   1.0000   1.0000   1.0000   1.0000   1.0000   1.0000   1.0000
     1.0000   1.0000   1.0000   1.0000   1.0000   1.0000   1.0000   1.0000
     1.0000   1.0000   1.0000   1.0000   1.0000   1.0000   1.0000   1.0000
     1.0000   1.0000   1.0000   1.0000   1.0000   1.0000   1.0000   1.0000
     1.0000   1.0000   1.0000   1.0000   1.0000   1.0000   1.0000   1.0000
     1.0000   1.0000   1.0000   1.0000   1.0000   1.0000   1.0000   1.0000
     1.0000   1.0000   1.0000   1.0000   1.0000   1.0000   1.0000   1.0000
     1.0000   1.0000   1.0000   1.0000   1.0000   1.0000   1.0000   1.0000
     1.0000   1.0000   1.0000   1.0000   1.0000   1.0000   1.0000   1.0000
     1.0001   1.0002   1.0003   1.0005   1.0008   1.0015   1.0016   1.0023
     1.0028   1.0074   1.0238   1.0300   1.0346   1.0470   1.0583   1.0715
     1.0808   1.0819   1.0098   0.9399   0.8751   0.7863   0.6981   0.5907
     0.3594   0.3134   0.1001   0.0779   0.0503   0.0407   0.0354   0.0199
     0.0132   0.0058   0.0024   0.0021   0.0011   0.0007   0.0001   0.0001
     0.0000   0.0000   0.0000   0.0000   0.0000   0.0000   0.0000   0.0000
     0.0000   0.0000   0.0000   0.0000   0.0000   0.0000   0.0000   0.0000
     0.0000   0.0000   0.0000   0.0000   0.0000   0.0000   0.0000   0.0000
     0.0000   0.0000   0.0000   0.0000   0.0000   0.0000   0.0000   0.0000
     0.0000   0.0000   0.0000   0.0000   0.0000   0.0000   0.0000   0.0000
     0.0000   0.0000   0.0000   0.0000   0.0000   0.0000   0.0000   0.0000
     0.0000   0.0000   0.0000   0.0000   0.0000   0.0000   0.0000   0.0000
     0.0000   0.0000   0.0000   0.0000   0.0000   0.0000   0.0000   0.0000
     0.0000   0.0000   0.0000   0.0000   0.0000   0.0000

     the Fermi energy is    13.5919 ev

!    total energy              =   -5978.17063965 Ry
     Harris-Foulkes estimate   =   -5978.17063968 Ry
     estimated scf accuracy    <       0.00000092 Ry

     The total energy is the sum of the following terms:

     one-electron contribution =    -897.57183125 Ry
     hartree contribution      =     839.49448667 Ry
     xc contribution           =   -1301.02694265 Ry
     ewald contribution        =   -4619.08256585 Ry
     smearing contrib. (-TS)   =       0.01621343 Ry

     total magnetization       =    -0.01 Bohr mag/cell
     absolute magnetization    =     0.03 Bohr mag/cell

     convergence has been achieved in  30 iterations

     Writing output data file aiida.save
 
     init_run     :     20.74s CPU     23.89s WALL (       1 calls)
     electrons    :    990.81s CPU   1027.91s WALL (       1 calls)

     Called by init_run:
     wfcinit      :     10.44s CPU     11.73s WALL (       1 calls)
     wfcinit:atom :      0.02s CPU      0.07s WALL (       2 calls)
     wfcinit:wfcr :     10.13s CPU     11.06s WALL (       2 calls)
     potinit      :      1.04s CPU      1.52s WALL (       1 calls)

     Called by electrons:
     c_bands      :    843.93s CPU    873.57s WALL (      30 calls)
     sum_band     :    103.54s CPU    106.89s WALL (      30 calls)
     v_of_rho     :      9.33s CPU      9.62s WALL (      31 calls)
     v_h          :      0.24s CPU      0.25s WALL (      31 calls)
     v_xc         :      9.08s CPU      9.35s WALL (      31 calls)
     newd         :     26.21s CPU     27.30s WALL (      31 calls)
     mix_rho      :      1.24s CPU      1.39s WALL (      30 calls)

     Called by c_bands:
     init_us_2    :      1.75s CPU      1.86s WALL (     122 calls)
     cegterg      :    681.58s CPU    709.15s WALL (      60 calls)

     Called by sum_band:
     sum_band:bec :      1.31s CPU      1.32s WALL (      60 calls)
     addusdens    :     37.21s CPU     38.44s WALL (      30 calls)

     Called by *egterg:
     h_psi        :    223.53s CPU    229.04s WALL (     273 calls)
     s_psi        :     45.89s CPU     45.92s WALL (     273 calls)
     g_psi        :      0.41s CPU      0.41s WALL (     211 calls)
     cdiaghg      :    330.61s CPU    346.03s WALL (     271 calls)
     cegterg:over :     34.31s CPU     34.86s WALL (     211 calls)
     cegterg:upda :     27.52s CPU     27.99s WALL (     211 calls)
     cegterg:last :     12.68s CPU     12.99s WALL (      60 calls)
     cdiaghg:chol :      8.13s CPU     11.33s WALL (     271 calls)
     cdiaghg:inve :      0.79s CPU      1.10s WALL (     271 calls)
     cdiaghg:para :     16.18s CPU     19.99s WALL (     542 calls)

     Called by h_psi:
     h_psi:pot    :    222.75s CPU    228.26s WALL (     273 calls)
     h_psi:calbec :     45.38s CPU     45.54s WALL (     273 calls)
     vloc_psi     :    129.41s CPU    134.53s WALL (     273 calls)
     vloc_psi:tg_ :      0.59s CPU      0.90s WALL (     273 calls)
     add_vuspsi   :     47.95s CPU     48.03s WALL (     273 calls)

     General routines
     calbec       :     63.98s CPU     64.16s WALL (     333 calls)
     fft          :      5.60s CPU      6.25s WALL (     951 calls)
     ffts         :      0.27s CPU      0.28s WALL (     122 calls)
     fftw         :    131.65s CPU    138.07s WALL (   11392 calls)
     interpolate  :      1.07s CPU      1.09s WALL (     122 calls)
     davcio       :      0.00s CPU      0.09s WALL (       2 calls)
 
     Parallel routines
     fft_scatter  :     46.50s CPU     52.26s WALL (   12465 calls)
     ALLTOALL     :      9.74s CPU      9.94s WALL (   11392 calls)
 
     PWSCF        : 17m 8.83s CPU    18m32.17s WALL

 
   This run was terminated on:  10:59: 0   9May2017            

=------------------------------------------------------------------------------=
   JOB DONE.
=------------------------------------------------------------------------------=
