SIRIUS 6.5.1, git hash: 03934cb413e35367d189966c763df8be178f72e3

     Program PWSCF v.6.5 starts on 10Mar2020 at 15:18: 5 

     This program is part of the open-source Quantum ESPRESSO suite
     for quantum simulation of materials; please cite
         "P. Giannozzi et al., J. Phys.:Condens. Matter 21 395502 (2009);
         "P. Giannozzi et al., J. Phys.:Condens. Matter 29 465901 (2017);
          URL http://www.quantum-espresso.org", 
     in publications or presentations arising from this work. More details at
     http://www.quantum-espresso.org/quote

     Parallel version (MPI & OpenMP), running on     108 processor cores
     Number of MPI processes:                 9
     Threads/MPI process:                    12

     MPI processes distributed on     9 nodes
     R & G space division:  proc/nbgrp/npool/nimage =       9
     Reading input from pw.in
     Message from routine read_cards :
     DEPRECATED: no units specified in CELL_PARAMETERS card
Warning: card 1 1 1  0 0 0 ignored

     Current dimensions of program PWSCF are:
     Max number of different atomic species (ntypx) = 10
     Max number of k-points (npk) =  40000
     Max angular momentum in pseudopotentials (lmaxx) =  3
     Message from routine cell_base_init:
     DEPRECATED: use true lattice parameter, not A to a.u. conversion factor

     gamma-point specific algorithms are used

     Subspace diagonalization in iterative solution of the eigenvalue problem:
     one sub-group per band group will be used
     scalapack distributed-memory algorithm (size of sub-group:  3*  3 procs)

     Message from routine setup:
     using ibrav=0 with symmetry is DISCOURAGED, use correct ibrav instead
 
     Parallelization info
     --------------------
     sticks:   dense  smooth     PW     G-vecs:    dense   smooth      PW
     Min        8938    2382    595              1907424   262676   32873
     Max        8942    2386    598              1907426   262680   32882
     Sum       80461   21449   5377             17166821  2364101  295907
 


     bravais-lattice index     =            0
     lattice parameter (alat)  =       1.0000  a.u.
     unit-cell volume          =   69174.1805 (a.u.)^3
     number of atoms/cell      =          512
     number of atomic types    =            2
     number of electrons       =      2058.00
     number of Kohn-Sham states=         1235
     kinetic-energy cutoff     =      40.0000  Ry
     charge density cutoff     =     600.0000  Ry
     convergence threshold     =      1.0E-10
     mixing beta               =       0.7000
     number of iterations used =            8  plain     mixing
     Exchange-correlation= SLA  PZ   NOGX NOGC
                           (   1   1   0   0   0   0   0)

     celldm(1)=   1.000000  celldm(2)=   0.000000  celldm(3)=   0.000000
     celldm(4)=   0.000000  celldm(5)=   0.000000  celldm(6)=   0.000000

     crystal axes: (cart. coord. in units of alat)
               a(1) = (  41.050143   0.000000   0.000000 )  
               a(2) = (   0.000000  41.050143   0.000000 )  
               a(3) = (   0.000000   0.000000  41.050143 )  

     reciprocal axes: (cart. coord. in units 2 pi/alat)
               b(1) = (  0.024360  0.000000  0.000000 )  
               b(2) = (  0.000000  0.024360  0.000000 )  
               b(3) = (  0.000000  0.000000  0.024360 )  


     PseudoPot. # 1 for Ge read from file:
     ./ge_lda_v1.uspp.F.UPF
     MD5 check sum: 575f587c0f86b3eee266efe92ef02c15
     Pseudo is Ultrasoft + core correction, Zval = 14.0
     Generated by new atomic code, or converted to UPF format
     Using radial grid of  873 points,  6 beta functions with: 
                l(1) =   0
                l(2) =   0
                l(3) =   1
                l(4) =   1
                l(5) =   2
                l(6) =   2
     Q(r) pseudized with  8 coefficients,  rinner =    1.400   1.400   1.400
                                                       1.400   1.400

     PseudoPot. # 2 for Si read from file:
     ./si_lda_v1.uspp.F.UPF
     MD5 check sum: ca10e49b2835512e91ee5100d37237e0
     Pseudo is Ultrasoft + core correction, Zval =  4.0
     Generated by new atomic code, or converted to UPF format
     Using radial grid of  899 points,  6 beta functions with: 
                l(1) =   0
                l(2) =   0
                l(3) =   1
                l(4) =   1
                l(5) =   2
                l(6) =   2
     Q(r) pseudized with  8 coefficients,  rinner =    0.900   0.900   0.900
                                                       0.900   0.900

     atomic species   valence    mass     pseudopotential
        Ge            14.00    72.61000     Ge( 1.00)
        Si             4.00    28.08550     Si( 1.00)

     24 Sym. Ops. (no inversion) found



   Cartesian axes

     site n.     atom                  positions (alat units)
         1           Ge  tau(   1) = (   0.0000000   0.0000000   0.0000000  )
         2           Si  tau(   2) = (  20.5250715  20.5250715  20.5250715  )
         3           Si  tau(   3) = (  20.5250715  20.5250715  30.7876073  )
         4           Si  tau(   4) = (  20.5250715  20.5250715   0.0000000  )
         5           Si  tau(   5) = (  20.5250715  20.5250715  10.2625357  )
         6           Si  tau(   6) = (  20.5250715  30.7876073  20.5250715  )
         7           Si  tau(   7) = (  20.5250715  30.7876073  30.7876073  )
         8           Si  tau(   8) = (  20.5250715  30.7876073   0.0000000  )
         9           Si  tau(   9) = (  20.5250715  30.7876073  10.2625357  )
        10           Si  tau(  10) = (  20.5250715   0.0000000  20.5250715  )
        11           Si  tau(  11) = (  20.5250715   0.0000000  30.7876073  )
        12           Si  tau(  12) = (  20.5250715   0.0000000   0.0000000  )
        13           Si  tau(  13) = (  20.5250715   0.0000000  10.2625357  )
        14           Si  tau(  14) = (  20.5250715  10.2625357  20.5250715  )
        15           Si  tau(  15) = (  20.5250715  10.2625357  30.7876073  )
        16           Si  tau(  16) = (  20.5250715  10.2625357   0.0000000  )
        17           Si  tau(  17) = (  20.5250715  10.2625357  10.2625357  )
        18           Si  tau(  18) = (  30.7876073  20.5250715  20.5250715  )
        19           Si  tau(  19) = (  30.7876073  20.5250715  30.7876073  )
        20           Si  tau(  20) = (  30.7876073  20.5250715   0.0000000  )
        21           Si  tau(  21) = (  30.7876073  20.5250715  10.2625357  )
        22           Si  tau(  22) = (  30.7876073  30.7876073  20.5250715  )
        23           Si  tau(  23) = (  30.7876073  30.7876073  30.7876073  )
        24           Si  tau(  24) = (  30.7876073  30.7876073   0.0000000  )
        25           Si  tau(  25) = (  30.7876073  30.7876073  10.2625357  )
        26           Si  tau(  26) = (  30.7876073   0.0000000  20.5250715  )
        27           Si  tau(  27) = (  30.7876073   0.0000000  30.7876073  )
        28           Si  tau(  28) = (  30.7876073   0.0000000   0.0000000  )
        29           Si  tau(  29) = (  30.7876073   0.0000000  10.2625357  )
        30           Si  tau(  30) = (  30.7876073  10.2625357  20.5250715  )
        31           Si  tau(  31) = (  30.7876073  10.2625357  30.7876073  )
        32           Si  tau(  32) = (  30.7876073  10.2625357   0.0000000  )
        33           Si  tau(  33) = (  30.7876073  10.2625357  10.2625357  )
        34           Si  tau(  34) = (   0.0000000  20.5250715  20.5250715  )
        35           Si  tau(  35) = (   0.0000000  20.5250715  30.7876073  )
        36           Si  tau(  36) = (   0.0000000  20.5250715   0.0000000  )
        37           Si  tau(  37) = (   0.0000000  20.5250715  10.2625357  )
        38           Si  tau(  38) = (   0.0000000  30.7876073  20.5250715  )
        39           Si  tau(  39) = (   0.0000000  30.7876073  30.7876073  )
        40           Si  tau(  40) = (   0.0000000  30.7876073   0.0000000  )
        41           Si  tau(  41) = (   0.0000000  30.7876073  10.2625357  )
        42           Si  tau(  42) = (   0.0000000   0.0000000  20.5250715  )
        43           Si  tau(  43) = (   0.0000000   0.0000000  30.7876073  )
        44           Si  tau(  44) = (   0.0000000   0.0000000  10.2625357  )
        45           Si  tau(  45) = (   0.0000000  10.2625357  20.5250715  )
        46           Si  tau(  46) = (   0.0000000  10.2625357  30.7876073  )
        47           Si  tau(  47) = (   0.0000000  10.2625357   0.0000000  )
        48           Si  tau(  48) = (   0.0000000  10.2625357  10.2625357  )
        49           Si  tau(  49) = (  10.2625357  20.5250715  20.5250715  )
        50           Si  tau(  50) = (  10.2625357  20.5250715  30.7876073  )
        51           Si  tau(  51) = (  10.2625357  20.5250715   0.0000000  )
        52           Si  tau(  52) = (  10.2625357  20.5250715  10.2625357  )
        53           Si  tau(  53) = (  10.2625357  30.7876073  20.5250715  )
        54           Si  tau(  54) = (  10.2625357  30.7876073  30.7876073  )
        55           Si  tau(  55) = (  10.2625357  30.7876073   0.0000000  )
        56           Si  tau(  56) = (  10.2625357  30.7876073  10.2625357  )
        57           Si  tau(  57) = (  10.2625357   0.0000000  20.5250715  )
        58           Si  tau(  58) = (  10.2625357   0.0000000  30.7876073  )
        59           Si  tau(  59) = (  10.2625357   0.0000000   0.0000000  )
        60           Si  tau(  60) = (  10.2625357   0.0000000  10.2625357  )
        61           Si  tau(  61) = (  10.2625357  10.2625357  20.5250715  )
        62           Si  tau(  62) = (  10.2625357  10.2625357  30.7876073  )
        63           Si  tau(  63) = (  10.2625357  10.2625357   0.0000000  )
        64           Si  tau(  64) = (  10.2625357  10.2625357  10.2625357  )
        65           Si  tau(  65) = (  20.5250715  25.6563394  25.6563394  )
        66           Si  tau(  66) = (  20.5250715  25.6563394  35.9188751  )
        67           Si  tau(  67) = (  20.5250715  25.6563394   5.1312679  )
        68           Si  tau(  68) = (  20.5250715  25.6563394  15.3938036  )
        69           Si  tau(  69) = (  20.5250715  35.9188751  25.6563394  )
        70           Si  tau(  70) = (  20.5250715  35.9188751  35.9188751  )
        71           Si  tau(  71) = (  20.5250715  35.9188751   5.1312679  )
        72           Si  tau(  72) = (  20.5250715  35.9188751  15.3938036  )
        73           Si  tau(  73) = (  20.5250715   5.1312679  25.6563394  )
        74           Si  tau(  74) = (  20.5250715   5.1312679  35.9188751  )
        75           Si  tau(  75) = (  20.5250715   5.1312679   5.1312679  )
        76           Si  tau(  76) = (  20.5250715   5.1312679  15.3938036  )
        77           Si  tau(  77) = (  20.5250715  15.3938036  25.6563394  )
        78           Si  tau(  78) = (  20.5250715  15.3938036  35.9188751  )
        79           Si  tau(  79) = (  20.5250715  15.3938036   5.1312679  )
        80           Si  tau(  80) = (  20.5250715  15.3938036  15.3938036  )
        81           Si  tau(  81) = (  30.7876073  25.6563394  25.6563394  )
        82           Si  tau(  82) = (  30.7876073  25.6563394  35.9188751  )
        83           Si  tau(  83) = (  30.7876073  25.6563394   5.1312679  )
        84           Si  tau(  84) = (  30.7876073  25.6563394  15.3938036  )
        85           Si  tau(  85) = (  30.7876073  35.9188751  25.6563394  )
        86           Si  tau(  86) = (  30.7876073  35.9188751  35.9188751  )
        87           Si  tau(  87) = (  30.7876073  35.9188751   5.1312679  )
        88           Si  tau(  88) = (  30.7876073  35.9188751  15.3938036  )
        89           Si  tau(  89) = (  30.7876073   5.1312679  25.6563394  )
        90           Si  tau(  90) = (  30.7876073   5.1312679  35.9188751  )
        91           Si  tau(  91) = (  30.7876073   5.1312679   5.1312679  )
        92           Si  tau(  92) = (  30.7876073   5.1312679  15.3938036  )
        93           Si  tau(  93) = (  30.7876073  15.3938036  25.6563394  )
        94           Si  tau(  94) = (  30.7876073  15.3938036  35.9188751  )
        95           Si  tau(  95) = (  30.7876073  15.3938036   5.1312679  )
        96           Si  tau(  96) = (  30.7876073  15.3938036  15.3938036  )
        97           Si  tau(  97) = (   0.0000000  25.6563394  25.6563394  )
        98           Si  tau(  98) = (   0.0000000  25.6563394  35.9188751  )
        99           Si  tau(  99) = (   0.0000000  25.6563394   5.1312679  )
       100           Si  tau( 100) = (   0.0000000  25.6563394  15.3938036  )
       101           Si  tau( 101) = (   0.0000000  35.9188751  25.6563394  )
       102           Si  tau( 102) = (   0.0000000  35.9188751  35.9188751  )
       103           Si  tau( 103) = (   0.0000000  35.9188751   5.1312679  )
       104           Si  tau( 104) = (   0.0000000  35.9188751  15.3938036  )
       105           Si  tau( 105) = (   0.0000000   5.1312679  25.6563394  )
       106           Si  tau( 106) = (   0.0000000   5.1312679  35.9188751  )
       107           Si  tau( 107) = (   0.0000000   5.1312679   5.1312679  )
       108           Si  tau( 108) = (   0.0000000   5.1312679  15.3938036  )
       109           Si  tau( 109) = (   0.0000000  15.3938036  25.6563394  )
       110           Si  tau( 110) = (   0.0000000  15.3938036  35.9188751  )
       111           Si  tau( 111) = (   0.0000000  15.3938036   5.1312679  )
       112           Si  tau( 112) = (   0.0000000  15.3938036  15.3938036  )
       113           Si  tau( 113) = (  10.2625357  25.6563394  25.6563394  )
       114           Si  tau( 114) = (  10.2625357  25.6563394  35.9188751  )
       115           Si  tau( 115) = (  10.2625357  25.6563394   5.1312679  )
       116           Si  tau( 116) = (  10.2625357  25.6563394  15.3938036  )
       117           Si  tau( 117) = (  10.2625357  35.9188751  25.6563394  )
       118           Si  tau( 118) = (  10.2625357  35.9188751  35.9188751  )
       119           Si  tau( 119) = (  10.2625357  35.9188751   5.1312679  )
       120           Si  tau( 120) = (  10.2625357  35.9188751  15.3938036  )
       121           Si  tau( 121) = (  10.2625357   5.1312679  25.6563394  )
       122           Si  tau( 122) = (  10.2625357   5.1312679  35.9188751  )
       123           Si  tau( 123) = (  10.2625357   5.1312679   5.1312679  )
       124           Si  tau( 124) = (  10.2625357   5.1312679  15.3938036  )
       125           Si  tau( 125) = (  10.2625357  15.3938036  25.6563394  )
       126           Si  tau( 126) = (  10.2625357  15.3938036  35.9188751  )
       127           Si  tau( 127) = (  10.2625357  15.3938036   5.1312679  )
       128           Si  tau( 128) = (  10.2625357  15.3938036  15.3938036  )
       129           Si  tau( 129) = (  25.6563394  20.5250715  25.6563394  )
       130           Si  tau( 130) = (  25.6563394  20.5250715  35.9188751  )
       131           Si  tau( 131) = (  25.6563394  20.5250715   5.1312679  )
       132           Si  tau( 132) = (  25.6563394  20.5250715  15.3938036  )
       133           Si  tau( 133) = (  25.6563394  30.7876073  25.6563394  )
       134           Si  tau( 134) = (  25.6563394  30.7876073  35.9188751  )
       135           Si  tau( 135) = (  25.6563394  30.7876073   5.1312679  )
       136           Si  tau( 136) = (  25.6563394  30.7876073  15.3938036  )
       137           Si  tau( 137) = (  25.6563394   0.0000000  25.6563394  )
       138           Si  tau( 138) = (  25.6563394   0.0000000  35.9188751  )
       139           Si  tau( 139) = (  25.6563394   0.0000000   5.1312679  )
       140           Si  tau( 140) = (  25.6563394   0.0000000  15.3938036  )
       141           Si  tau( 141) = (  25.6563394  10.2625357  25.6563394  )
       142           Si  tau( 142) = (  25.6563394  10.2625357  35.9188751  )
       143           Si  tau( 143) = (  25.6563394  10.2625357   5.1312679  )
       144           Si  tau( 144) = (  25.6563394  10.2625357  15.3938036  )
       145           Si  tau( 145) = (  35.9188751  20.5250715  25.6563394  )
       146           Si  tau( 146) = (  35.9188751  20.5250715  35.9188751  )
       147           Si  tau( 147) = (  35.9188751  20.5250715   5.1312679  )
       148           Si  tau( 148) = (  35.9188751  20.5250715  15.3938036  )
       149           Si  tau( 149) = (  35.9188751  30.7876073  25.6563394  )
       150           Si  tau( 150) = (  35.9188751  30.7876073  35.9188751  )
       151           Si  tau( 151) = (  35.9188751  30.7876073   5.1312679  )
       152           Si  tau( 152) = (  35.9188751  30.7876073  15.3938036  )
       153           Si  tau( 153) = (  35.9188751   0.0000000  25.6563394  )
       154           Si  tau( 154) = (  35.9188751   0.0000000  35.9188751  )
       155           Si  tau( 155) = (  35.9188751   0.0000000   5.1312679  )
       156           Si  tau( 156) = (  35.9188751   0.0000000  15.3938036  )
       157           Si  tau( 157) = (  35.9188751  10.2625357  25.6563394  )
       158           Si  tau( 158) = (  35.9188751  10.2625357  35.9188751  )
       159           Si  tau( 159) = (  35.9188751  10.2625357   5.1312679  )
       160           Si  tau( 160) = (  35.9188751  10.2625357  15.3938036  )
       161           Si  tau( 161) = (   5.1312679  20.5250715  25.6563394  )
       162           Si  tau( 162) = (   5.1312679  20.5250715  35.9188751  )
       163           Si  tau( 163) = (   5.1312679  20.5250715   5.1312679  )
       164           Si  tau( 164) = (   5.1312679  20.5250715  15.3938036  )
       165           Si  tau( 165) = (   5.1312679  30.7876073  25.6563394  )
       166           Si  tau( 166) = (   5.1312679  30.7876073  35.9188751  )
       167           Si  tau( 167) = (   5.1312679  30.7876073   5.1312679  )
       168           Si  tau( 168) = (   5.1312679  30.7876073  15.3938036  )
       169           Si  tau( 169) = (   5.1312679   0.0000000  25.6563394  )
       170           Si  tau( 170) = (   5.1312679   0.0000000  35.9188751  )
       171           Si  tau( 171) = (   5.1312679   0.0000000   5.1312679  )
       172           Si  tau( 172) = (   5.1312679   0.0000000  15.3938036  )
       173           Si  tau( 173) = (   5.1312679  10.2625357  25.6563394  )
       174           Si  tau( 174) = (   5.1312679  10.2625357  35.9188751  )
       175           Si  tau( 175) = (   5.1312679  10.2625357   5.1312679  )
       176           Si  tau( 176) = (   5.1312679  10.2625357  15.3938036  )
       177           Si  tau( 177) = (  15.3938036  20.5250715  25.6563394  )
       178           Si  tau( 178) = (  15.3938036  20.5250715  35.9188751  )
       179           Si  tau( 179) = (  15.3938036  20.5250715   5.1312679  )
       180           Si  tau( 180) = (  15.3938036  20.5250715  15.3938036  )
       181           Si  tau( 181) = (  15.3938036  30.7876073  25.6563394  )
       182           Si  tau( 182) = (  15.3938036  30.7876073  35.9188751  )
       183           Si  tau( 183) = (  15.3938036  30.7876073   5.1312679  )
       184           Si  tau( 184) = (  15.3938036  30.7876073  15.3938036  )
       185           Si  tau( 185) = (  15.3938036   0.0000000  25.6563394  )
       186           Si  tau( 186) = (  15.3938036   0.0000000  35.9188751  )
       187           Si  tau( 187) = (  15.3938036   0.0000000   5.1312679  )
       188           Si  tau( 188) = (  15.3938036   0.0000000  15.3938036  )
       189           Si  tau( 189) = (  15.3938036  10.2625357  25.6563394  )
       190           Si  tau( 190) = (  15.3938036  10.2625357  35.9188751  )
       191           Si  tau( 191) = (  15.3938036  10.2625357   5.1312679  )
       192           Si  tau( 192) = (  15.3938036  10.2625357  15.3938036  )
       193           Si  tau( 193) = (  25.6563394  25.6563394  20.5250715  )
       194           Si  tau( 194) = (  25.6563394  25.6563394  30.7876073  )
       195           Si  tau( 195) = (  25.6563394  25.6563394   0.0000000  )
       196           Si  tau( 196) = (  25.6563394  25.6563394  10.2625357  )
       197           Si  tau( 197) = (  25.6563394  35.9188751  20.5250715  )
       198           Si  tau( 198) = (  25.6563394  35.9188751  30.7876073  )
       199           Si  tau( 199) = (  25.6563394  35.9188751   0.0000000  )
       200           Si  tau( 200) = (  25.6563394  35.9188751  10.2625357  )
       201           Si  tau( 201) = (  25.6563394   5.1312679  20.5250715  )
       202           Si  tau( 202) = (  25.6563394   5.1312679  30.7876073  )
       203           Si  tau( 203) = (  25.6563394   5.1312679   0.0000000  )
       204           Si  tau( 204) = (  25.6563394   5.1312679  10.2625357  )
       205           Si  tau( 205) = (  25.6563394  15.3938036  20.5250715  )
       206           Si  tau( 206) = (  25.6563394  15.3938036  30.7876073  )
       207           Si  tau( 207) = (  25.6563394  15.3938036   0.0000000  )
       208           Si  tau( 208) = (  25.6563394  15.3938036  10.2625357  )
       209           Si  tau( 209) = (  35.9188751  25.6563394  20.5250715  )
       210           Si  tau( 210) = (  35.9188751  25.6563394  30.7876073  )
       211           Si  tau( 211) = (  35.9188751  25.6563394   0.0000000  )
       212           Si  tau( 212) = (  35.9188751  25.6563394  10.2625357  )
       213           Si  tau( 213) = (  35.9188751  35.9188751  20.5250715  )
       214           Si  tau( 214) = (  35.9188751  35.9188751  30.7876073  )
       215           Si  tau( 215) = (  35.9188751  35.9188751   0.0000000  )
       216           Si  tau( 216) = (  35.9188751  35.9188751  10.2625357  )
       217           Si  tau( 217) = (  35.9188751   5.1312679  20.5250715  )
       218           Si  tau( 218) = (  35.9188751   5.1312679  30.7876073  )
       219           Si  tau( 219) = (  35.9188751   5.1312679   0.0000000  )
       220           Si  tau( 220) = (  35.9188751   5.1312679  10.2625357  )
       221           Si  tau( 221) = (  35.9188751  15.3938036  20.5250715  )
       222           Si  tau( 222) = (  35.9188751  15.3938036  30.7876073  )
       223           Si  tau( 223) = (  35.9188751  15.3938036   0.0000000  )
       224           Si  tau( 224) = (  35.9188751  15.3938036  10.2625357  )
       225           Si  tau( 225) = (   5.1312679  25.6563394  20.5250715  )
       226           Si  tau( 226) = (   5.1312679  25.6563394  30.7876073  )
       227           Si  tau( 227) = (   5.1312679  25.6563394   0.0000000  )
       228           Si  tau( 228) = (   5.1312679  25.6563394  10.2625357  )
       229           Si  tau( 229) = (   5.1312679  35.9188751  20.5250715  )
       230           Si  tau( 230) = (   5.1312679  35.9188751  30.7876073  )
       231           Si  tau( 231) = (   5.1312679  35.9188751   0.0000000  )
       232           Si  tau( 232) = (   5.1312679  35.9188751  10.2625357  )
       233           Si  tau( 233) = (   5.1312679   5.1312679  20.5250715  )
       234           Si  tau( 234) = (   5.1312679   5.1312679  30.7876073  )
       235           Si  tau( 235) = (   5.1312679   5.1312679   0.0000000  )
       236           Si  tau( 236) = (   5.1312679   5.1312679  10.2625357  )
       237           Si  tau( 237) = (   5.1312679  15.3938036  20.5250715  )
       238           Si  tau( 238) = (   5.1312679  15.3938036  30.7876073  )
       239           Si  tau( 239) = (   5.1312679  15.3938036   0.0000000  )
       240           Si  tau( 240) = (   5.1312679  15.3938036  10.2625357  )
       241           Si  tau( 241) = (  15.3938036  25.6563394  20.5250715  )
       242           Si  tau( 242) = (  15.3938036  25.6563394  30.7876073  )
       243           Si  tau( 243) = (  15.3938036  25.6563394   0.0000000  )
       244           Si  tau( 244) = (  15.3938036  25.6563394  10.2625357  )
       245           Si  tau( 245) = (  15.3938036  35.9188751  20.5250715  )
       246           Si  tau( 246) = (  15.3938036  35.9188751  30.7876073  )
       247           Si  tau( 247) = (  15.3938036  35.9188751   0.0000000  )
       248           Si  tau( 248) = (  15.3938036  35.9188751  10.2625357  )
       249           Si  tau( 249) = (  15.3938036   5.1312679  20.5250715  )
       250           Si  tau( 250) = (  15.3938036   5.1312679  30.7876073  )
       251           Si  tau( 251) = (  15.3938036   5.1312679   0.0000000  )
       252           Si  tau( 252) = (  15.3938036   5.1312679  10.2625357  )
       253           Si  tau( 253) = (  15.3938036  15.3938036  20.5250715  )
       254           Si  tau( 254) = (  15.3938036  15.3938036  30.7876073  )
       255           Si  tau( 255) = (  15.3938036  15.3938036   0.0000000  )
       256           Si  tau( 256) = (  15.3938036  15.3938036  10.2625357  )
       257           Si  tau( 257) = (  28.2219733  28.2219733  23.0907054  )
       258           Si  tau( 258) = (  28.2219733  28.2219733  33.3532412  )
       259           Si  tau( 259) = (  28.2219733  28.2219733   2.5656339  )
       260           Si  tau( 260) = (  28.2219733  28.2219733  12.8281697  )
       261           Si  tau( 261) = (  28.2219733  38.4845091  23.0907054  )
       262           Si  tau( 262) = (  28.2219733  38.4845091  33.3532412  )
       263           Si  tau( 263) = (  28.2219733  38.4845091   2.5656339  )
       264           Si  tau( 264) = (  28.2219733  38.4845091  12.8281697  )
       265           Si  tau( 265) = (  28.2219733   7.6969018  23.0907054  )
       266           Si  tau( 266) = (  28.2219733   7.6969018  33.3532412  )
       267           Si  tau( 267) = (  28.2219733   7.6969018   2.5656339  )
       268           Si  tau( 268) = (  28.2219733   7.6969018  12.8281697  )
       269           Si  tau( 269) = (  28.2219733  17.9594376  23.0907054  )
       270           Si  tau( 270) = (  28.2219733  17.9594376  33.3532412  )
       271           Si  tau( 271) = (  28.2219733  17.9594376   2.5656339  )
       272           Si  tau( 272) = (  28.2219733  17.9594376  12.8281697  )
       273           Si  tau( 273) = (  38.4845091  28.2219733  23.0907054  )
       274           Si  tau( 274) = (  38.4845091  28.2219733  33.3532412  )
       275           Si  tau( 275) = (  38.4845091  28.2219733   2.5656339  )
       276           Si  tau( 276) = (  38.4845091  28.2219733  12.8281697  )
       277           Si  tau( 277) = (  38.4845091  38.4845091  23.0907054  )
       278           Si  tau( 278) = (  38.4845091  38.4845091  33.3532412  )
       279           Si  tau( 279) = (  38.4845091  38.4845091   2.5656339  )
       280           Si  tau( 280) = (  38.4845091  38.4845091  12.8281697  )
       281           Si  tau( 281) = (  38.4845091   7.6969018  23.0907054  )
       282           Si  tau( 282) = (  38.4845091   7.6969018  33.3532412  )
       283           Si  tau( 283) = (  38.4845091   7.6969018   2.5656339  )
       284           Si  tau( 284) = (  38.4845091   7.6969018  12.8281697  )
       285           Si  tau( 285) = (  38.4845091  17.9594376  23.0907054  )
       286           Si  tau( 286) = (  38.4845091  17.9594376  33.3532412  )
       287           Si  tau( 287) = (  38.4845091  17.9594376   2.5656339  )
       288           Si  tau( 288) = (  38.4845091  17.9594376  12.8281697  )
       289           Si  tau( 289) = (   7.6969018  28.2219733  23.0907054  )
       290           Si  tau( 290) = (   7.6969018  28.2219733  33.3532412  )
       291           Si  tau( 291) = (   7.6969018  28.2219733   2.5656339  )
       292           Si  tau( 292) = (   7.6969018  28.2219733  12.8281697  )
       293           Si  tau( 293) = (   7.6969018  38.4845091  23.0907054  )
       294           Si  tau( 294) = (   7.6969018  38.4845091  33.3532412  )
       295           Si  tau( 295) = (   7.6969018  38.4845091   2.5656339  )
       296           Si  tau( 296) = (   7.6969018  38.4845091  12.8281697  )
       297           Si  tau( 297) = (   7.6969018   7.6969018  23.0907054  )
       298           Si  tau( 298) = (   7.6969018   7.6969018  33.3532412  )
       299           Si  tau( 299) = (   7.6969018   7.6969018   2.5656339  )
       300           Si  tau( 300) = (   7.6969018   7.6969018  12.8281697  )
       301           Si  tau( 301) = (   7.6969018  17.9594376  23.0907054  )
       302           Si  tau( 302) = (   7.6969018  17.9594376  33.3532412  )
       303           Si  tau( 303) = (   7.6969018  17.9594376   2.5656339  )
       304           Si  tau( 304) = (   7.6969018  17.9594376  12.8281697  )
       305           Si  tau( 305) = (  17.9594376  28.2219733  23.0907054  )
       306           Si  tau( 306) = (  17.9594376  28.2219733  33.3532412  )
       307           Si  tau( 307) = (  17.9594376  28.2219733   2.5656339  )
       308           Si  tau( 308) = (  17.9594376  28.2219733  12.8281697  )
       309           Si  tau( 309) = (  17.9594376  38.4845091  23.0907054  )
       310           Si  tau( 310) = (  17.9594376  38.4845091  33.3532412  )
       311           Si  tau( 311) = (  17.9594376  38.4845091   2.5656339  )
       312           Si  tau( 312) = (  17.9594376  38.4845091  12.8281697  )
       313           Si  tau( 313) = (  17.9594376   7.6969018  23.0907054  )
       314           Si  tau( 314) = (  17.9594376   7.6969018  33.3532412  )
       315           Si  tau( 315) = (  17.9594376   7.6969018   2.5656339  )
       316           Si  tau( 316) = (  17.9594376   7.6969018  12.8281697  )
       317           Si  tau( 317) = (  17.9594376  17.9594376  23.0907054  )
       318           Si  tau( 318) = (  17.9594376  17.9594376  33.3532412  )
       319           Si  tau( 319) = (  17.9594376  17.9594376   2.5656339  )
       320           Si  tau( 320) = (  17.9594376  17.9594376  12.8281697  )
       321           Si  tau( 321) = (  28.2219733  23.0907054  28.2219733  )
       322           Si  tau( 322) = (  28.2219733  23.0907054  38.4845091  )
       323           Si  tau( 323) = (  28.2219733  23.0907054   7.6969018  )
       324           Si  tau( 324) = (  28.2219733  23.0907054  17.9594376  )
       325           Si  tau( 325) = (  28.2219733  33.3532412  28.2219733  )
       326           Si  tau( 326) = (  28.2219733  33.3532412  38.4845091  )
       327           Si  tau( 327) = (  28.2219733  33.3532412   7.6969018  )
       328           Si  tau( 328) = (  28.2219733  33.3532412  17.9594376  )
       329           Si  tau( 329) = (  28.2219733   2.5656339  28.2219733  )
       330           Si  tau( 330) = (  28.2219733   2.5656339  38.4845091  )
       331           Si  tau( 331) = (  28.2219733   2.5656339   7.6969018  )
       332           Si  tau( 332) = (  28.2219733   2.5656339  17.9594376  )
       333           Si  tau( 333) = (  28.2219733  12.8281697  28.2219733  )
       334           Si  tau( 334) = (  28.2219733  12.8281697  38.4845091  )
       335           Si  tau( 335) = (  28.2219733  12.8281697   7.6969018  )
       336           Si  tau( 336) = (  28.2219733  12.8281697  17.9594376  )
       337           Si  tau( 337) = (  38.4845091  23.0907054  28.2219733  )
       338           Si  tau( 338) = (  38.4845091  23.0907054  38.4845091  )
       339           Si  tau( 339) = (  38.4845091  23.0907054   7.6969018  )
       340           Si  tau( 340) = (  38.4845091  23.0907054  17.9594376  )
       341           Si  tau( 341) = (  38.4845091  33.3532412  28.2219733  )
       342           Si  tau( 342) = (  38.4845091  33.3532412  38.4845091  )
       343           Si  tau( 343) = (  38.4845091  33.3532412   7.6969018  )
       344           Si  tau( 344) = (  38.4845091  33.3532412  17.9594376  )
       345           Si  tau( 345) = (  38.4845091   2.5656339  28.2219733  )
       346           Si  tau( 346) = (  38.4845091   2.5656339  38.4845091  )
       347           Si  tau( 347) = (  38.4845091   2.5656339   7.6969018  )
       348           Si  tau( 348) = (  38.4845091   2.5656339  17.9594376  )
       349           Si  tau( 349) = (  38.4845091  12.8281697  28.2219733  )
       350           Si  tau( 350) = (  38.4845091  12.8281697  38.4845091  )
       351           Si  tau( 351) = (  38.4845091  12.8281697   7.6969018  )
       352           Si  tau( 352) = (  38.4845091  12.8281697  17.9594376  )
       353           Si  tau( 353) = (   7.6969018  23.0907054  28.2219733  )
       354           Si  tau( 354) = (   7.6969018  23.0907054  38.4845091  )
       355           Si  tau( 355) = (   7.6969018  23.0907054   7.6969018  )
       356           Si  tau( 356) = (   7.6969018  23.0907054  17.9594376  )
       357           Si  tau( 357) = (   7.6969018  33.3532412  28.2219733  )
       358           Si  tau( 358) = (   7.6969018  33.3532412  38.4845091  )
       359           Si  tau( 359) = (   7.6969018  33.3532412   7.6969018  )
       360           Si  tau( 360) = (   7.6969018  33.3532412  17.9594376  )
       361           Si  tau( 361) = (   7.6969018   2.5656339  28.2219733  )
       362           Si  tau( 362) = (   7.6969018   2.5656339  38.4845091  )
       363           Si  tau( 363) = (   7.6969018   2.5656339   7.6969018  )
       364           Si  tau( 364) = (   7.6969018   2.5656339  17.9594376  )
       365           Si  tau( 365) = (   7.6969018  12.8281697  28.2219733  )
       366           Si  tau( 366) = (   7.6969018  12.8281697  38.4845091  )
       367           Si  tau( 367) = (   7.6969018  12.8281697   7.6969018  )
       368           Si  tau( 368) = (   7.6969018  12.8281697  17.9594376  )
       369           Si  tau( 369) = (  17.9594376  23.0907054  28.2219733  )
       370           Si  tau( 370) = (  17.9594376  23.0907054  38.4845091  )
       371           Si  tau( 371) = (  17.9594376  23.0907054   7.6969018  )
       372           Si  tau( 372) = (  17.9594376  23.0907054  17.9594376  )
       373           Si  tau( 373) = (  17.9594376  33.3532412  28.2219733  )
       374           Si  tau( 374) = (  17.9594376  33.3532412  38.4845091  )
       375           Si  tau( 375) = (  17.9594376  33.3532412   7.6969018  )
       376           Si  tau( 376) = (  17.9594376  33.3532412  17.9594376  )
       377           Si  tau( 377) = (  17.9594376   2.5656339  28.2219733  )
       378           Si  tau( 378) = (  17.9594376   2.5656339  38.4845091  )
       379           Si  tau( 379) = (  17.9594376   2.5656339   7.6969018  )
       380           Si  tau( 380) = (  17.9594376   2.5656339  17.9594376  )
       381           Si  tau( 381) = (  17.9594376  12.8281697  28.2219733  )
       382           Si  tau( 382) = (  17.9594376  12.8281697  38.4845091  )
       383           Si  tau( 383) = (  17.9594376  12.8281697   7.6969018  )
       384           Si  tau( 384) = (  17.9594376  12.8281697  17.9594376  )
       385           Si  tau( 385) = (  23.0907054  28.2219733  28.2219733  )
       386           Si  tau( 386) = (  23.0907054  28.2219733  38.4845091  )
       387           Si  tau( 387) = (  23.0907054  28.2219733   7.6969018  )
       388           Si  tau( 388) = (  23.0907054  28.2219733  17.9594376  )
       389           Si  tau( 389) = (  23.0907054  38.4845091  28.2219733  )
       390           Si  tau( 390) = (  23.0907054  38.4845091  38.4845091  )
       391           Si  tau( 391) = (  23.0907054  38.4845091   7.6969018  )
       392           Si  tau( 392) = (  23.0907054  38.4845091  17.9594376  )
       393           Si  tau( 393) = (  23.0907054   7.6969018  28.2219733  )
       394           Si  tau( 394) = (  23.0907054   7.6969018  38.4845091  )
       395           Si  tau( 395) = (  23.0907054   7.6969018   7.6969018  )
       396           Si  tau( 396) = (  23.0907054   7.6969018  17.9594376  )
       397           Si  tau( 397) = (  23.0907054  17.9594376  28.2219733  )
       398           Si  tau( 398) = (  23.0907054  17.9594376  38.4845091  )
       399           Si  tau( 399) = (  23.0907054  17.9594376   7.6969018  )
       400           Si  tau( 400) = (  23.0907054  17.9594376  17.9594376  )
       401           Si  tau( 401) = (  33.3532412  28.2219733  28.2219733  )
       402           Si  tau( 402) = (  33.3532412  28.2219733  38.4845091  )
       403           Si  tau( 403) = (  33.3532412  28.2219733   7.6969018  )
       404           Si  tau( 404) = (  33.3532412  28.2219733  17.9594376  )
       405           Si  tau( 405) = (  33.3532412  38.4845091  28.2219733  )
       406           Si  tau( 406) = (  33.3532412  38.4845091  38.4845091  )
       407           Si  tau( 407) = (  33.3532412  38.4845091   7.6969018  )
       408           Si  tau( 408) = (  33.3532412  38.4845091  17.9594376  )
       409           Si  tau( 409) = (  33.3532412   7.6969018  28.2219733  )
       410           Si  tau( 410) = (  33.3532412   7.6969018  38.4845091  )
       411           Si  tau( 411) = (  33.3532412   7.6969018   7.6969018  )
       412           Si  tau( 412) = (  33.3532412   7.6969018  17.9594376  )
       413           Si  tau( 413) = (  33.3532412  17.9594376  28.2219733  )
       414           Si  tau( 414) = (  33.3532412  17.9594376  38.4845091  )
       415           Si  tau( 415) = (  33.3532412  17.9594376   7.6969018  )
       416           Si  tau( 416) = (  33.3532412  17.9594376  17.9594376  )
       417           Si  tau( 417) = (   2.5656339  28.2219733  28.2219733  )
       418           Si  tau( 418) = (   2.5656339  28.2219733  38.4845091  )
       419           Si  tau( 419) = (   2.5656339  28.2219733   7.6969018  )
       420           Si  tau( 420) = (   2.5656339  28.2219733  17.9594376  )
       421           Si  tau( 421) = (   2.5656339  38.4845091  28.2219733  )
       422           Si  tau( 422) = (   2.5656339  38.4845091  38.4845091  )
       423           Si  tau( 423) = (   2.5656339  38.4845091   7.6969018  )
       424           Si  tau( 424) = (   2.5656339  38.4845091  17.9594376  )
       425           Si  tau( 425) = (   2.5656339   7.6969018  28.2219733  )
       426           Si  tau( 426) = (   2.5656339   7.6969018  38.4845091  )
       427           Si  tau( 427) = (   2.5656339   7.6969018   7.6969018  )
       428           Si  tau( 428) = (   2.5656339   7.6969018  17.9594376  )
       429           Si  tau( 429) = (   2.5656339  17.9594376  28.2219733  )
       430           Si  tau( 430) = (   2.5656339  17.9594376  38.4845091  )
       431           Si  tau( 431) = (   2.5656339  17.9594376   7.6969018  )
       432           Si  tau( 432) = (   2.5656339  17.9594376  17.9594376  )
       433           Si  tau( 433) = (  12.8281697  28.2219733  28.2219733  )
       434           Si  tau( 434) = (  12.8281697  28.2219733  38.4845091  )
       435           Si  tau( 435) = (  12.8281697  28.2219733   7.6969018  )
       436           Si  tau( 436) = (  12.8281697  28.2219733  17.9594376  )
       437           Si  tau( 437) = (  12.8281697  38.4845091  28.2219733  )
       438           Si  tau( 438) = (  12.8281697  38.4845091  38.4845091  )
       439           Si  tau( 439) = (  12.8281697  38.4845091   7.6969018  )
       440           Si  tau( 440) = (  12.8281697  38.4845091  17.9594376  )
       441           Si  tau( 441) = (  12.8281697   7.6969018  28.2219733  )
       442           Si  tau( 442) = (  12.8281697   7.6969018  38.4845091  )
       443           Si  tau( 443) = (  12.8281697   7.6969018   7.6969018  )
       444           Si  tau( 444) = (  12.8281697   7.6969018  17.9594376  )
       445           Si  tau( 445) = (  12.8281697  17.9594376  28.2219733  )
       446           Si  tau( 446) = (  12.8281697  17.9594376  38.4845091  )
       447           Si  tau( 447) = (  12.8281697  17.9594376   7.6969018  )
       448           Si  tau( 448) = (  12.8281697  17.9594376  17.9594376  )
       449           Si  tau( 449) = (  23.0907054  23.0907054  23.0907054  )
       450           Si  tau( 450) = (  23.0907054  23.0907054  33.3532412  )
       451           Si  tau( 451) = (  23.0907054  23.0907054   2.5656339  )
       452           Si  tau( 452) = (  23.0907054  23.0907054  12.8281697  )
       453           Si  tau( 453) = (  23.0907054  33.3532412  23.0907054  )
       454           Si  tau( 454) = (  23.0907054  33.3532412  33.3532412  )
       455           Si  tau( 455) = (  23.0907054  33.3532412   2.5656339  )
       456           Si  tau( 456) = (  23.0907054  33.3532412  12.8281697  )
       457           Si  tau( 457) = (  23.0907054   2.5656339  23.0907054  )
       458           Si  tau( 458) = (  23.0907054   2.5656339  33.3532412  )
       459           Si  tau( 459) = (  23.0907054   2.5656339   2.5656339  )
       460           Si  tau( 460) = (  23.0907054   2.5656339  12.8281697  )
       461           Si  tau( 461) = (  23.0907054  12.8281697  23.0907054  )
       462           Si  tau( 462) = (  23.0907054  12.8281697  33.3532412  )
       463           Si  tau( 463) = (  23.0907054  12.8281697   2.5656339  )
       464           Si  tau( 464) = (  23.0907054  12.8281697  12.8281697  )
       465           Si  tau( 465) = (  33.3532412  23.0907054  23.0907054  )
       466           Si  tau( 466) = (  33.3532412  23.0907054  33.3532412  )
       467           Si  tau( 467) = (  33.3532412  23.0907054   2.5656339  )
       468           Si  tau( 468) = (  33.3532412  23.0907054  12.8281697  )
       469           Si  tau( 469) = (  33.3532412  33.3532412  23.0907054  )
       470           Si  tau( 470) = (  33.3532412  33.3532412  33.3532412  )
       471           Si  tau( 471) = (  33.3532412  33.3532412   2.5656339  )
       472           Si  tau( 472) = (  33.3532412  33.3532412  12.8281697  )
       473           Si  tau( 473) = (  33.3532412   2.5656339  23.0907054  )
       474           Si  tau( 474) = (  33.3532412   2.5656339  33.3532412  )
       475           Si  tau( 475) = (  33.3532412   2.5656339   2.5656339  )
       476           Si  tau( 476) = (  33.3532412   2.5656339  12.8281697  )
       477           Si  tau( 477) = (  33.3532412  12.8281697  23.0907054  )
       478           Si  tau( 478) = (  33.3532412  12.8281697  33.3532412  )
       479           Si  tau( 479) = (  33.3532412  12.8281697   2.5656339  )
       480           Si  tau( 480) = (  33.3532412  12.8281697  12.8281697  )
       481           Si  tau( 481) = (   2.5656339  23.0907054  23.0907054  )
       482           Si  tau( 482) = (   2.5656339  23.0907054  33.3532412  )
       483           Si  tau( 483) = (   2.5656339  23.0907054   2.5656339  )
       484           Si  tau( 484) = (   2.5656339  23.0907054  12.8281697  )
       485           Si  tau( 485) = (   2.5656339  33.3532412  23.0907054  )
       486           Si  tau( 486) = (   2.5656339  33.3532412  33.3532412  )
       487           Si  tau( 487) = (   2.5656339  33.3532412   2.5656339  )
       488           Si  tau( 488) = (   2.5656339  33.3532412  12.8281697  )
       489           Si  tau( 489) = (   2.5656339   2.5656339  23.0907054  )
       490           Si  tau( 490) = (   2.5656339   2.5656339  33.3532412  )
       491           Si  tau( 491) = (   2.5656339   2.5656339   2.5656339  )
       492           Si  tau( 492) = (   2.5656339   2.5656339  12.8281697  )
       493           Si  tau( 493) = (   2.5656339  12.8281697  23.0907054  )
       494           Si  tau( 494) = (   2.5656339  12.8281697  33.3532412  )
       495           Si  tau( 495) = (   2.5656339  12.8281697   2.5656339  )
       496           Si  tau( 496) = (   2.5656339  12.8281697  12.8281697  )
       497           Si  tau( 497) = (  12.8281697  23.0907054  23.0907054  )
       498           Si  tau( 498) = (  12.8281697  23.0907054  33.3532412  )
       499           Si  tau( 499) = (  12.8281697  23.0907054   2.5656339  )
       500           Si  tau( 500) = (  12.8281697  23.0907054  12.8281697  )
       501           Si  tau( 501) = (  12.8281697  33.3532412  23.0907054  )
       502           Si  tau( 502) = (  12.8281697  33.3532412  33.3532412  )
       503           Si  tau( 503) = (  12.8281697  33.3532412   2.5656339  )
       504           Si  tau( 504) = (  12.8281697  33.3532412  12.8281697  )
       505           Si  tau( 505) = (  12.8281697   2.5656339  23.0907054  )
       506           Si  tau( 506) = (  12.8281697   2.5656339  33.3532412  )
       507           Si  tau( 507) = (  12.8281697   2.5656339   2.5656339  )
       508           Si  tau( 508) = (  12.8281697   2.5656339  12.8281697  )
       509           Si  tau( 509) = (  12.8281697  12.8281697  23.0907054  )
       510           Si  tau( 510) = (  12.8281697  12.8281697  33.3532412  )
       511           Si  tau( 511) = (  12.8281697  12.8281697   2.5656339  )
       512           Si  tau( 512) = (  12.8281697  12.8281697  12.8281697  )

     number of k points=     1  Gaussian smearing, width (Ry)=  0.0010
                       cart. coord. in units 2pi/alat
        k(    1) = (   0.0000000   0.0000000   0.0000000), wk =   2.0000000

     Dense  grid:  8583411 G-vectors     FFT dimensions: ( 324, 324, 324)

     Smooth grid:  1182051 G-vectors     FFT dimensions: ( 180, 180, 180)

     Estimated max dynamical RAM per process >      13.13 GB

     Estimated total dynamical RAM >     118.13 GB

     Initial potential from superposition of free atoms

     total cpu time spent up to now is       21.3 secs

     Self-consistent Calculation

     iteration #  1     ecut=    40.00 Ry     beta= 0.70

     Threshold (ethr) on eigenvalues was too large:
     Diagonalizing with lowered threshold


     total cpu time spent up to now is       38.7 secs

     total energy              =   -5126.82650228 Ry
     estimated scf accuracy    <      14.53670342 Ry
 
     Band energy sum           =      64.99726512 Ry

     iteration #  2     ecut=    40.00 Ry     beta= 0.70

     total cpu time spent up to now is       48.0 secs

     total energy              =   -5127.96197383 Ry
     estimated scf accuracy    <       0.54906216 Ry
 
     Band energy sum           =     124.50828412 Ry

     iteration #  3     ecut=    40.00 Ry     beta= 0.70

     total cpu time spent up to now is       70.1 secs

     total energy              =   -5128.12955325 Ry
     estimated scf accuracy    <       0.03064095 Ry
 
     Band energy sum           =     130.73321622 Ry

     iteration #  4     ecut=    40.00 Ry     beta= 0.70

     total cpu time spent up to now is       89.4 secs

     total energy              =   -5128.09293703 Ry
     estimated scf accuracy    <       0.54402069 Ry
 
     Band energy sum           =     126.98756634 Ry

     iteration #  5     ecut=    40.00 Ry     beta= 0.70

     total cpu time spent up to now is      102.6 secs

     total energy              =   -5128.14635085 Ry
     estimated scf accuracy    <       0.02683576 Ry
 
     Band energy sum           =     127.50285528 Ry

     iteration #  6     ecut=    40.00 Ry     beta= 0.70

     total cpu time spent up to now is      110.6 secs

     total energy              =   -5128.14914577 Ry
     estimated scf accuracy    <       0.00376194 Ry
 
     Band energy sum           =     127.79156953 Ry

     iteration #  7     ecut=    40.00 Ry     beta= 0.70

     total cpu time spent up to now is      118.7 secs

     total energy              =   -5128.14950325 Ry
     estimated scf accuracy    <       0.00084062 Ry
 
     Band energy sum           =     128.02578362 Ry

     iteration #  8     ecut=    40.00 Ry     beta= 0.70

     total cpu time spent up to now is      126.8 secs

     total energy              =   -5128.14958323 Ry
     estimated scf accuracy    <       0.00013023 Ry
 
     Band energy sum           =     128.20595262 Ry

     iteration #  9     ecut=    40.00 Ry     beta= 0.70

     total cpu time spent up to now is      135.6 secs

     total energy              =   -5128.14960461 Ry
     estimated scf accuracy    <       0.00001918 Ry
 
     Band energy sum           =     128.30362779 Ry

     iteration # 10     ecut=    40.00 Ry     beta= 0.70

     total cpu time spent up to now is      144.2 secs

     total energy              =   -5128.14960884 Ry
     estimated scf accuracy    <       0.00000357 Ry
 
     Band energy sum           =     128.33705815 Ry

     iteration # 11     ecut=    40.00 Ry     beta= 0.70

     total cpu time spent up to now is      153.1 secs

     total energy              =   -5128.14960951 Ry
     estimated scf accuracy    <       0.00000202 Ry
 
     Band energy sum           =     128.31949788 Ry

     iteration # 12     ecut=    40.00 Ry     beta= 0.70

     total cpu time spent up to now is      161.1 secs

     total energy              =   -5128.14960978 Ry
     estimated scf accuracy    <       0.00000080 Ry
 
     Band energy sum           =     128.32637968 Ry

     iteration # 13     ecut=    40.00 Ry     beta= 0.70

     total cpu time spent up to now is      168.7 secs

     total energy              =   -5128.14960987 Ry
     estimated scf accuracy    <       0.00000039 Ry
 
     Band energy sum           =     128.32676346 Ry

     iteration # 14     ecut=    40.00 Ry     beta= 0.70

     total cpu time spent up to now is      176.3 secs

     total energy              =   -5128.14960991 Ry
     estimated scf accuracy    <       0.00000007 Ry
 
     Band energy sum           =     128.32716131 Ry

     iteration # 15     ecut=    40.00 Ry     beta= 0.70

     total cpu time spent up to now is      184.7 secs

     total energy              =   -5128.14960992 Ry
     estimated scf accuracy    <       0.00000007 Ry
 
     Band energy sum           =     128.32664809 Ry

     iteration # 16     ecut=    40.00 Ry     beta= 0.70

     total cpu time spent up to now is      190.5 secs

     total energy              =   -5128.14960993 Ry
     estimated scf accuracy    <       0.00000001 Ry
 
     Band energy sum           =     128.32670670 Ry

     iteration # 17     ecut=    40.00 Ry     beta= 0.70

     total cpu time spent up to now is      195.7 secs

     total energy              =   -5128.14960993 Ry
     estimated scf accuracy    <          9.5E-10 Ry
 
     Band energy sum           =     128.32673399 Ry

     iteration # 18     ecut=    40.00 Ry     beta= 0.70

     total cpu time spent up to now is      200.8 secs

     total energy              =   -5128.14960993 Ry
     estimated scf accuracy    <          4.0E-10 Ry
 
     Band energy sum           =     128.32670861 Ry

     iteration # 19     ecut=    40.00 Ry     beta= 0.70

     total cpu time spent up to now is      206.1 secs

     total energy              =   -5128.14960993 Ry
     estimated scf accuracy    <          2.2E-10 Ry
 
     Band energy sum           =     128.32668100 Ry

     iteration # 20     ecut=    40.00 Ry     beta= 0.70

     total cpu time spent up to now is      211.0 secs

     End of self-consistent calculation

          k = 0.0000 0.0000 0.0000 (147954 PWs)   bands (ev):

   -18.3118 -18.3118 -18.3118 -18.2816 -18.2816  -5.9524  -5.7031  -5.6750
    -5.6750  -5.6750  -5.6749  -5.6749  -5.4554  -5.4078  -5.4078  -5.4078
    -5.4075  -5.4075  -5.4075  -5.4075  -5.4075  -5.4075  -5.4075  -5.4075
    -5.1772  -5.1482  -5.1482  -5.1482  -5.1480  -5.1479  -5.1479  -5.1479
    -4.8936  -4.8663  -4.8663  -4.8663  -4.8661  -4.8661  -4.7049  -4.6194
    -4.6194  -4.6194  -4.6184  -4.6184  -4.6184  -4.6184  -4.6184  -4.6184
    -4.6184  -4.6184  -4.6183  -4.6183  -4.6183  -4.6183  -4.6183  -4.6183
    -4.6183  -4.6183  -4.6183  -4.6182  -4.6182  -4.6182  -4.4473  -4.3916
    -4.3916  -4.3916  -4.3906  -4.3906  -4.3906  -4.3906  -4.3906  -4.3906
    -4.3906  -4.3906  -4.3906  -4.3905  -4.3905  -4.3905  -4.3905  -4.3905
    -4.3905  -4.3905  -4.3905  -4.3905  -4.3905  -4.3905  -3.9577  -3.9036
    -3.9036  -3.9036  -3.9030  -3.9030  -3.9030  -3.9030  -3.9030  -3.9030
    -3.9030  -3.9030  -3.8270  -3.7725  -3.7725  -3.7725  -3.7717  -3.7717
    -3.7717  -3.7717  -3.7717  -3.7717  -3.7717  -3.7717  -3.7717  -3.7717
    -3.7717  -3.7717  -3.7717  -3.7717  -3.7717  -3.7717  -3.7717  -3.7716
    -3.7716  -3.7716  -3.6233  -3.6112  -3.6112  -3.6112  -3.5672  -3.5545
    -3.5545  -3.5545  -3.5541  -3.5541  -3.4198  -3.3561  -3.3561  -3.3561
    -3.3547  -3.3547  -3.3547  -3.3547  -3.3547  -3.3547  -3.3547  -3.3547
    -3.3547  -3.3547  -3.3546  -3.3546  -3.3546  -3.3546  -3.3546  -3.3546
    -3.3546  -3.3546  -3.3546  -3.3546  -3.2676  -3.2293  -3.2293  -3.2293
    -3.2282  -3.2282  -3.2282  -3.2282  -3.2282  -3.2282  -3.2282  -3.2282
    -3.2282  -3.2282  -3.2282  -3.2282  -3.2281  -3.2281  -3.2281  -3.2281
    -3.2281  -3.2281  -3.2281  -3.2281  -3.1096  -3.0742  -3.0742  -3.0742
    -3.0737  -3.0737  -3.0737  -3.0737  -3.0737  -3.0736  -3.0736  -3.0736
    -3.0736  -3.0736  -3.0736  -3.0736  -3.0736  -3.0736  -3.0736  -3.0736
    -3.0736  -3.0736  -3.0736  -3.0736  -2.8640  -2.8294  -2.8294  -2.8294
    -2.8286  -2.8286  -2.8286  -2.8284  -2.8284  -2.8284  -2.8284  -2.8284
    -2.8284  -2.8284  -2.8284  -2.8284  -2.8284  -2.8284  -2.8284  -2.8284
    -2.8284  -2.8284  -2.8284  -2.8284  -2.2393  -2.2149  -2.2149  -2.2149
    -2.2147  -2.2147  -2.2147  -2.2146  -2.2146  -2.2146  -2.2145  -2.2145
    -1.8283  -1.8062  -1.8062  -1.8062  -1.8058  -1.8058  -1.7666  -1.7277
    -1.7277  -1.7277  -1.7265  -1.7265  -1.7265  -1.7265  -1.7265  -1.7265
    -1.7264  -1.7264  -1.7264  -1.7264  -1.7264  -1.7264  -1.7264  -1.7264
    -1.7264  -1.7264  -1.7264  -1.7264  -1.7264  -1.7264  -1.6529  -1.6393
    -1.6393  -1.6393  -1.6390  -1.6390  -1.6390  -1.6389  -1.6389  -1.6389
    -1.6389  -1.6389  -1.2379  -1.2183  -1.2183  -1.2183  -1.2177  -1.2177
    -1.2177  -1.2176  -1.2176  -1.2176  -1.2176  -1.2176  -0.9823  -0.9786
    -0.9786  -0.9786  -0.8216  -0.7900  -0.7900  -0.7900  -0.7875  -0.7875
    -0.7875  -0.7875  -0.7875  -0.7874  -0.7874  -0.7874  -0.7874  -0.7874
    -0.7874  -0.7874  -0.7874  -0.7874  -0.7874  -0.7874  -0.7874  -0.7873
    -0.7873  -0.7873  -0.6022  -0.5614  -0.5614  -0.5614  -0.5605  -0.5605
    -0.5605  -0.5604  -0.5604  -0.5604  -0.5604  -0.5604  -0.5603  -0.5603
    -0.5603  -0.5603  -0.5603  -0.5603  -0.5603  -0.5603  -0.5603  -0.5602
    -0.5602  -0.5602  -0.4238  -0.3853  -0.3853  -0.3853  -0.3818  -0.3817
    -0.3817  -0.3817  -0.3816  -0.3816  -0.3816  -0.3816  -0.3816  -0.3816
    -0.3816  -0.3816  -0.3816  -0.3816  -0.3816  -0.3816  -0.3816  -0.3814
    -0.3814  -0.3814  -0.3804  -0.3795  -0.3795  -0.3795  -0.3790  -0.3790
    -0.3790  -0.3789  -0.3789  -0.3789  -0.3789  -0.3789  -0.3789  -0.3789
    -0.3789  -0.3789  -0.3788  -0.3788  -0.3788  -0.3788  -0.3788  -0.3786
    -0.3786  -0.3786   0.0115   0.0435   0.0435   0.0435   0.0440   0.0440
     0.0440   0.0441   0.0441   0.0441   0.0441   0.0441   0.0441   0.0441
     0.0441   0.0441   0.0441   0.0441   0.0441   0.0441   0.0441   0.0443
     0.0443   0.0443   0.2541   0.2616   0.2616   0.2616   0.2617   0.2617
     0.5091   0.5232   0.5232   0.5232   0.5236   0.5236   0.5236   0.5238
     0.5238   0.5241   0.5241   0.5241   0.6933   0.7110   0.7110   0.7110
     0.7127   0.7129   0.7129   0.7129   0.7129   0.7129   0.7129   0.7129
     0.7129   0.7129   0.7129   0.7129   0.7129   0.7129   0.7129   0.7130
     0.7130   0.7137   0.7137   0.7137   1.6829   1.6829   1.6829   1.6833
     1.6844   1.6844   1.6844   1.6844   1.6844   1.6844   1.6845   1.6847
     1.6847   1.7116   1.7116   1.7116   1.7122   1.7122   1.7122   1.7122
     1.7122   1.7123   1.7123   1.7123   1.7123   1.7123   1.7123   1.7123
     1.7123   1.7123   1.7123   1.7124   1.7124   1.7136   1.7136   1.7136
     1.7565   1.7565   1.7565   1.7583   1.7591   1.7591   1.7591   1.7591
     1.7591   1.7591   1.7592   1.7592   1.7592   1.7592   1.7592   1.7592
     1.7592   1.7592   1.7593   1.7594   1.7594   1.7594   1.7597   1.7597
     2.0631   2.0687   2.0687   2.0687   2.0691   2.0697   2.0697   2.0697
     2.1363   2.1363   2.1363   2.1374   2.1374   2.1374   2.1375   2.1375
     2.1375   2.1375   2.1379   2.1379   2.2349   2.2352   2.2352   2.2352
     2.2363   2.2363   2.2363   2.2366   2.2366   2.2367   2.2367   2.2367
     2.4507   2.4560   2.4560   2.4560   2.4578   2.4578   2.4578   2.4578
     2.4578   2.4578   2.4579   2.4579   2.4579   2.4579   2.4579   2.4579
     2.4579   2.4579   2.4579   2.4585   2.4585   2.4585   2.4586   2.4586
     2.4758   2.4824   2.4824   2.4828   2.4828   2.4828   2.5371   2.5418
     2.5418   2.5418   2.5433   2.5433   2.5433   2.5435   2.5435   2.5435
     2.5435   2.5435   2.5435   2.5435   2.5435   2.5435   2.5435   2.5435
     2.5435   2.5440   2.5440   2.5442   2.5442   2.5442   2.5798   2.5798
     2.5798   2.5811   2.5811   2.5811   2.5813   2.5817   2.5817   2.5817
     2.5817   2.5817   2.5817   2.5817   2.5817   2.5817   2.5817   2.5817
     2.5817   2.5820   2.5820   2.5820   2.5823   2.5823   2.6326   2.6326
     2.6326   2.6329   2.6340   2.6340   2.6340   2.6344   2.6344   2.6344
     2.6344   2.6344   2.6344   2.6345   2.6345   2.6345   2.6345   2.6345
     2.6346   2.6349   2.6349   2.6352   2.6352   2.6352   3.1619   3.1619
     3.1619   3.1619   3.1619   3.1619   3.2434   3.2434   3.2434   3.2442
     3.2442   3.2442   3.2446   3.2446   3.2446   3.2446   3.2447   3.2447
     3.2447   3.2447   3.2447   3.2448   3.2448   3.2448   3.2448   3.2453
     3.2453   3.2453   3.2456   3.2456   3.2813   3.2831   3.2831   3.2831
     3.2844   3.2844   3.2844   3.2846   3.2846   3.2846   3.2846   3.2846
     3.2846   3.2846   3.2846   3.2846   3.2846   3.2846   3.2847   3.2849
     3.2849   3.2861   3.2861   3.2861   3.3052   3.3146   3.3146   3.3146
     3.3148   3.3148   3.3148   3.3148   3.3148   3.3163   3.3163   3.3163
     3.4070   3.4070   3.4070   3.4071   3.4071   3.4071   3.4076   3.4076
     3.4076   3.4080   3.4080   3.4080   3.4184   3.4184   3.4184   3.4187
     3.4189   3.4189   3.4189   3.4193   3.4193   3.4193   3.4193   3.4194
     3.4194   3.4194   3.4194   3.4194   3.4194   3.4194   3.4194   3.4199
     3.4199   3.4199   3.4204   3.4204   3.5313   3.5370   3.5370   3.5370
     3.5374   3.5374   3.5374   3.5378   3.5378   3.5378   3.5378   3.5378
     3.5378   3.5378   3.5379   3.5379   3.5379   3.5379   3.5379   3.5383
     3.5383   3.5395   3.5395   3.5395   3.5894   3.5894   3.5894   3.5897
     3.5897   3.5897   3.5899   3.5899   3.5899   3.5899   3.5901   3.5901
     3.8092   3.8092   3.8092   3.8095   3.8095   3.8095   3.8100   3.8100
     3.8100   3.8100   3.8101   3.8101   3.8101   3.8101   3.8101   3.8101
     3.8101   3.8101   3.8101   3.8104   3.8104   3.8108   3.8108   3.8108
     3.8489   3.8489   3.8489   3.8489   3.8489   3.8489   3.8493   3.8494
     3.8494   3.8494   3.8494   3.8494   3.8494   3.8495   3.8495   3.8495
     3.8495   3.8495   3.8495   3.8503   3.8503   3.8503   3.8505   3.8505
     4.1233   4.1233   4.1233   4.1235   4.1235   4.1235   4.1237   4.1237
     4.1237   4.1247   4.1247   4.1247   4.1588   4.1659   4.1659   4.1659
     4.1661   4.1661   4.1661   4.1662   4.1663   4.1663   4.1663   4.1663
     4.1663   4.1664   4.1664   4.1664   4.1664   4.1664   4.1664   4.1669
     4.1669   4.1686   4.1686   4.1686   4.3734   4.3739   4.3739   4.3739
     4.3743   4.3743   4.3743   4.3744   4.3744   4.3758   4.3758   4.3758
     4.4280   4.4280   4.4280   4.4281   4.4281   4.4281   4.4286   4.4286
     4.4286   4.4286   4.4286   4.4286   4.4286   4.4286   4.4286   4.4286
     4.4286   4.4286   4.4287   4.4289   4.4289   4.4310   4.4310   4.4310
     4.5823   4.5837   4.5837   4.5837   4.5838   4.5838   4.5838   4.5839
     4.5839   4.5839   4.5840   4.5840   4.5840   4.5840   4.5840   4.5841
     4.5841   4.5841   4.5841   4.5848   4.5848   4.5864   4.5864   4.5864
     4.6579   4.6628   4.6628   4.6639   4.6639   4.6639   4.6889   4.6889
     4.6889   4.6892   4.6892   4.6892   4.6892   4.6896   4.6896   4.6901
     4.6901   4.6901   4.7513   4.7513   4.7513   4.7521   4.7521   4.7521
     4.7521   4.7521   4.7521   4.7521   4.7521   4.7521   4.7521   4.7521
     4.7521   4.7521   4.7521   4.7521   4.7521   4.7527   4.7527   4.7542
     4.7542   4.7542   4.8196   4.8196   4.8196   4.8200   4.8200   4.8207
     4.8207   4.8207   5.2067   5.2067   5.2067   5.2068   5.2068   5.2068
     5.2069   5.2069   5.2069   5.2091   5.2091   5.2091   5.2565   5.2565
     5.2565   5.2566   5.2566   5.2566   5.2567   5.2567   5.2568   5.2568
     5.2568   5.2569   5.2569   5.2598   5.2598   5.2598   5.7252   5.7252
     5.7252   5.7252   5.7252   5.7252   5.7253   5.7254   5.7254   5.7280
     5.7280   5.7280   6.0175   6.0175   6.0175   6.5317   6.5357   6.5357
     6.5362   6.5362   6.5362   6.6221   6.6262   6.6262   6.6262   6.6263
     6.6263   7.0584   7.0618   7.0618   7.0627   7.0627   7.0627   7.1172
     7.1229   7.1229   7.1229   7.1231   7.1231   7.1231   7.1257   7.1257
     7.1257   7.1261   7.1261   7.4214   7.4379   7.4379   7.4379   7.4407
     7.4442   7.4442   7.4442   7.4444   7.4445   7.4445   7.4445   7.4445
     7.4445   7.4446   7.4446   7.4446   7.4446   7.4446   7.4446   7.4447
     7.4447   7.4447   7.4492   7.4492   7.4495   7.4495   7.4495   7.4551
     7.4582   7.4582   7.4582   7.4599   7.4599   7.8673   7.8824   7.8824
     7.8824   7.8828   7.8828   7.8828   7.8829   7.8829   7.8829   7.8829
     7.8829   7.8829   7.8830   7.8830   7.8830   7.8835   7.8835   7.8835
     7.8854   7.8854   7.8870   7.8870   7.8870   7.8938   7.8996   7.8996
     7.8996   7.9000   7.9000   7.9000   7.9001   7.9001   7.9001   7.9001
     7.9001   7.9001   7.9001   7.9001   7.9001   7.9006   7.9006   7.9006
     7.9063   7.9063   7.9068   7.9068   7.9068   7.9289   7.9369   7.9374
     7.9374   7.9374   7.9397   7.9397   7.9397   7.9661   7.9673   7.9673
     7.9690   7.9690   7.9690   8.1630   8.1791   8.1796   8.1796   8.1796
     8.1797   8.1797   8.1797   8.1798   8.1798   8.1798   8.1798   8.1798
     8.1799   8.1799   8.1799   8.1804   8.1804   8.1804   8.1836   8.1836
     8.1853   8.1853   8.1853   8.2636   8.2846   8.2846   8.2846   8.2848
     8.2848   8.2848   8.2849   8.2849   8.2849   8.2849   8.2849   8.2849
     8.2849   8.2849   8.2849   8.2853   8.2853   8.2853   8.2874   8.2874
     8.2908   8.2908   8.2908   8.3765   8.3829   8.3829   8.3829   8.3833
     8.3833   8.3834   8.3850   8.3850   8.3850   8.3856   8.3856   8.3907
     8.3937   8.3938   8.3938   8.3940   8.3940   8.3940   8.3941   8.3941
     8.3941   8.3942   8.3942   8.3950   8.3950   8.3950   8.3965   8.3966
     8.4027   8.4027   8.4027

     the Fermi energy is     6.3386 ev

!    total energy              =   -5128.14960993 Ry
     estimated scf accuracy    <          5.4E-11 Ry
     smearing contrib. (-TS)   =      -0.00000000 Ry
     internal energy E=F+TS    =   -5128.14960993 Ry

     The total energy is F=E-TS. E is the sum of the following terms:
     one-electron contribution =    1072.71929834 Ry
     hartree contribution      =     404.47265212 Ry
     xc contribution           =   -2256.46259465 Ry
     ewald contribution        =   -4348.87896573 Ry
 
     Band energy sum           =     128.32668623 Ry

     convergence has been achieved in  20 iterations
 
     evp_work_count :  1640.324998
 
     init_run     :    110.37s CPU     20.88s WALL (       1 calls)
     electrons    :   1623.76s CPU    189.75s WALL (       1 calls)

     Called by init_run:
     potinit      :      9.06s CPU      0.79s WALL (       1 calls)
     hinit0       :     17.33s CPU      1.45s WALL (       1 calls)

     Called by electrons:
     c_bands      :   1004.26s CPU    128.09s WALL (      21 calls)
     sum_band     :    333.20s CPU     31.47s WALL (      21 calls)
     v_of_rho     :     40.81s CPU      3.48s WALL (      21 calls)
     mix_rho      :     37.17s CPU      3.10s WALL (      21 calls)

     Called by c_bands:

     Called by sum_band:

     Called by *egterg:

     Called by h_psi:

     General routines
     fft          :     63.23s CPU      5.32s WALL (     125 calls)
     ffts         :      1.49s CPU      0.14s WALL (      21 calls)
     interpolate  :     17.69s CPU      1.50s WALL (      21 calls)
 
     Parallel routines
     fft_scatt_xy :      5.22s CPU      0.43s WALL (     146 calls)
     fft_scatt_yz :     42.80s CPU      3.57s WALL (     146 calls)
 
     PWSCF        :  29m 2.41s CPU   3m34.59s WALL

 
   This run was terminated on:  15:21:39  10Mar2020            

=------------------------------------------------------------------------------=
   JOB DONE.
=------------------------------------------------------------------------------=
==========================================================================================================================================================
                                                                           #         Total          %   Parent %        Median           Min           Max
----------------------------------------------------------------------------------------------------------------------------------------------------------
sirius                                                                     1      215.43 s     100.00     100.00      215.43 s      215.43 s      215.43 s
 |- sirius::initialize                                                     1     693.80 ms       0.32       0.32     693.80 ms     693.80 ms     693.80 ms
 |- qe|setup                                                               1      82.46 ms       0.04       0.04      82.46 ms      82.46 ms      82.46 ms
 |- qe|init_run                                                            1       20.88 s       9.69       9.69       20.88 s       20.88 s       20.88 s
 | |- qe|init_run|setup_sirius                                             1       10.98 s       5.10      52.59       10.98 s       10.98 s       10.98 s
 | | |- sirius::Simulation_context::initialize                             1        9.73 s       4.51      88.55        9.73 s        9.73 s        9.73 s
 | | | |- sirius::Simulation_context::init_comm                            1     807.64 us       0.00       0.01     807.64 us     807.64 us     807.64 us
 | | | |- sirius::Unit_cell::initialize                                    1     175.08 ms       0.08       1.80     175.08 ms     175.08 ms     175.08 ms
 | | | | |- sirius::Atom_type::init                                        2      34.32 us       0.00       0.02      17.16 us       3.27 us      31.05 us
 | | | | |- sirius::Unit_cell::update                                      1     174.62 ms       0.08      99.74     174.62 ms     174.62 ms     174.62 ms
 | | | | | |- sirius::Unit_cell::find_nearest_neighbours                   1     165.40 ms       0.08      94.72     165.40 ms     165.40 ms     165.40 ms
 | | | | | |- sirius::Unit_cell::get_symmetry                              1       9.15 ms       0.00       5.24       9.15 ms       9.15 ms       9.15 ms
 | | | | | | |- sirius::Unit_cell_symmetry                                 1       5.08 ms       0.00      55.53       5.08 ms       5.08 ms       5.08 ms
 | | | | | | | |- sirius::Unit_cell_symmetry|spg                           1     892.00 ns       0.00       0.02     892.00 ns     892.00 ns     892.00 ns
 | | | | | | | |- sirius::Unit_cell_symmetry|equiv                         1       5.03 ms       0.00      99.01       5.03 ms       5.03 ms       5.03 ms
 | | | | | | | |- sirius::Unit_cell_symmetry|mag                           1      19.46 us       0.00       0.38      19.46 us      19.46 us      19.46 us
 | | | |
 | | | |- sirius::Simulation_context::update                               1        9.55 s       4.43      98.19        9.55 s        9.55 s        9.55 s
 | | | | |- sirius::Unit_cell::update                                      1     170.77 ms       0.08       1.79     170.77 ms     170.77 ms     170.77 ms
 | | | | | |- sirius::Unit_cell::find_nearest_neighbours                   1     161.88 ms       0.08      94.79     161.88 ms     161.88 ms     161.88 ms
 | | | | | |- sirius::Unit_cell::get_symmetry                              1       8.84 ms       0.00       5.18       8.84 ms       8.84 ms       8.84 ms
 | | | | | | |- sirius::Unit_cell_symmetry                                 1       5.05 ms       0.00      57.08       5.05 ms       5.05 ms       5.05 ms
 | | | | | | | |- sirius::Unit_cell_symmetry|spg                           1     416.00 ns       0.00       0.01     416.00 ns     416.00 ns     416.00 ns
 | | | | | | | |- sirius::Unit_cell_symmetry|equiv                         1       5.02 ms       0.00      99.48       5.02 ms       5.02 ms       5.02 ms
 | | | | | | | |- sirius::Unit_cell_symmetry|mag                           1      17.21 us       0.00       0.34      17.21 us      17.21 us      17.21 us
 | | | | |
 | | | | |- sirius::Radial_integrals|rho_core_pseudo                       2       1.48 us       0.00       0.00     740.00 ns     211.00 ns       1.27 us
 | | | | |- sirius::Radial_integrals|rho_pseudo                            1      47.57 ms       0.02       0.50      47.57 ms      47.57 ms      47.57 ms
 | | | | |- sirius::Radial_integrals|vloc                                  2       1.60 us       0.00       0.00     801.00 ns     266.00 ns       1.34 us
 | | | | |- sirius::Radial_integrals|atomic_wfs                            4      88.43 ms       0.04       0.93      18.95 ms       3.42 us      50.53 ms
 | | | | |- sddk::Gvec::init                                               2        2.87 s       1.33      30.04        1.43 s     353.00 ms        2.52 s
 | | | | | |- sddk::Gvec::find_gvec_shells                                 2        2.35 s       1.09      81.76        1.17 s     284.37 ms        2.06 s
 | | | | |
 | | | | |- sddk::Gvec_shells                                              1     527.66 ms       0.24       5.53     527.66 ms     527.66 ms     527.66 ms
 | | | | |- sirius::Simulation_context::init_atoms_to_grid_idx             1      21.38 ms       0.01       0.22      21.38 ms      21.38 ms      21.38 ms
 | | | | |- sirius::Augmentation_operator::generate_pw_coeffs              2        3.51 s       1.63      36.80        1.76 s        1.75 s        1.76 s
 | | | | | |- sirius::Augmentation_operator::generate_pw_coeffs|1          2       9.64 ms       0.00       0.27       4.82 ms       2.52 ms       7.12 ms
 | | | | | |- sirius::Augmentation_operator::generate_pw_coeffs|2          2        2.24 s       1.04      63.80        1.12 s        1.12 s        1.12 s
 | | | | | | |- sirius::Augmentation_operator::generate_pw_coeffs|gpu      2        2.23 s       1.03      99.43        1.11 s        1.11 s        1.12 s
 | | |
 | | |- sirius::K_point_set::add_kpoints                                   1      15.95 us       0.00       0.00      15.95 us      15.95 us      15.95 us
 | | | |- sirius::K_point_set::add_kpoint                                  1      13.78 us       0.00      86.40      13.78 us      13.78 us      13.78 us
 | | | | |- sirius::K_point::K_point                                       1       2.54 us       0.00      18.46       2.54 us       2.54 us       2.54 us
 | | |
 | | |- sirius::Smooth_periodic_function                                   2      31.90 ms       0.01       0.29      15.95 ms      15.79 ms      16.11 ms
 | | |- sirius::Potential                                                  1     100.72 ms       0.05       0.92     100.72 ms     100.72 ms     100.72 ms
 | | | |- sirius::Smooth_periodic_function                                 6      96.29 ms       0.04      95.60      16.05 ms      16.00 ms      16.11 ms
 | | | |- sirius::Potential::update                                        1       2.13 ms       0.00       2.12       2.13 ms       2.13 ms       2.13 ms
 | | |
 | | |- sirius::Density                                                    1      43.02 ms       0.02       0.39      43.02 ms      43.02 ms      43.02 ms
 | | | |- sirius::Smooth_periodic_function                                 2      39.98 ms       0.02      92.93      19.99 ms      16.03 ms      23.95 ms
 | | | |- sirius::Density::update                                          1       2.09 ms       0.00       4.85       2.09 ms       2.09 ms       2.09 ms
 | |
 | |- qe|init_vloc                                                         1     106.55 ms       0.05       0.51     106.55 ms     106.55 ms     106.55 ms
 | |- qe|init_run|hinit0|init_us_1                                         1     453.00 ns       0.00       0.00     453.00 ns     453.00 ns     453.00 ns
 | |- qe|init_run|hinit0|init_at_1                                         1       8.60 ms       0.00       0.04       8.60 ms       8.60 ms       8.60 ms
 | |- qe|setlocal                                                          1     162.97 ms       0.08       0.78     162.97 ms     162.97 ms     162.97 ms
 | |- qe|set_rhoc                                                          1     130.25 ms       0.06       0.62     130.25 ms     130.25 ms     130.25 ms
 | |- qe|potinit                                                           1     786.66 ms       0.37       3.77     786.66 ms     786.66 ms     786.66 ms
 | | |- qe|atomic_rho_g                                                    1      13.18 ms       0.01       1.67      13.18 ms      13.18 ms      13.18 ms
 | | | |- sirius_api::sirius_get_pw_coeffs_real                            2       6.16 ms       0.00      46.74       3.08 ms       3.00 ms       3.16 ms
 | | |
 | | |- qe|paw_becsum                                                      1     309.00 ns       0.00       0.00     309.00 ns     309.00 ns     309.00 ns
 | | |- sirius_api::sirius_set_pw_coeffs                                   1     364.78 ms       0.17      46.37     364.78 ms     364.78 ms     364.78 ms
 | | | |- sirius::Smooth_periodic_function::fft_transform                  1      16.57 ms       0.01       4.54      16.57 ms      16.57 ms      16.57 ms
 | | |
 | | |- qe|paw_potential                                                   1       1.20 us       0.00       0.00       1.20 us       1.20 us       1.20 us
 | | |- qe|set_vrs                                                         1      82.38 ms       0.04      10.47      82.38 ms      82.38 ms      82.38 ms
 | |
 | |- qe|newd                                                              1     573.93 ms       0.27       2.75     573.93 ms     573.93 ms     573.93 ms
 | | |- sirius::Potential::generate_D_operator_matrix                      1     572.00 ms       0.27      99.66     572.00 ms     572.00 ms     572.00 ms
 | |
 | |- sirius::K_point_set::initialize                                      1      30.36 ms       0.01       0.15      30.36 ms      30.36 ms      30.36 ms
 | | |- sirius::K_point::initialize                                        1      30.35 ms       0.01      99.96      30.35 ms      30.35 ms      30.35 ms
 | | | |- sirius::K_point::generate_gkvec                                  1      25.06 ms       0.01      82.59      25.06 ms      25.06 ms      25.06 ms
 | | | | |- sddk::Gvec::init                                               1       9.80 ms       0.00      39.12       9.80 ms       9.80 ms       9.80 ms
 | | | |
 | | | |- sddk::matrix_storage::matrix_storage                             1      11.73 us       0.00       0.04      11.73 us      11.73 us      11.73 us
 | | | |- sirius::K_point::update                                          1       3.99 ms       0.00      13.14       3.99 ms       3.99 ms       3.99 ms
 | | | | |- sirius::Beta_projectors                                        1       2.55 ms       0.00      63.92       2.55 ms       2.55 ms       2.55 ms
 | | | | | |- sirius::Beta_projectors::generate_pw_coefs_t                 1       1.56 ms       0.00      61.18       1.56 ms       1.56 ms       1.56 ms
 | |
 | |- sirius::Hamiltonian0                                                 1      48.15 ms       0.02       0.23      48.15 ms      48.15 ms      48.15 ms
 | | |- sirius::Local_operator                                             1      46.03 ms       0.02      95.60      46.03 ms      46.03 ms      46.03 ms
 | | | |- sirius::Smooth_periodic_function                                 1      26.12 ms       0.01      56.74      26.12 ms      26.12 ms      26.12 ms
 | | | |- sirius::Smooth_periodic_function::fft_transform                  1      13.14 ms       0.01      28.54      13.14 ms      13.14 ms      13.14 ms
 | | |
 | | |- sirius::Non_local_operator                                         2     137.98 us       0.00       0.29      68.99 us      56.84 us      81.15 us
 | | |- sirius::D_operator::initialize                                     1     366.51 us       0.00       0.76     366.51 us     366.51 us     366.51 us
 | | |- sirius::Q_operator::initialize                                     1     521.25 us       0.00       1.08     521.25 us     521.25 us     521.25 us
 | |
 | |- sirius::Band::initialize_subspace                                    1        4.47 s       2.07      21.40        4.47 s        4.47 s        4.47 s
 | | |- sirius::Hamiltonian_k                                              1     444.42 us       0.00       0.01     444.42 us     444.42 us     444.42 us
 | | | |- sirius::Local_operator::prepare_k                                1     434.30 us       0.00      97.72     434.30 us     434.30 us     434.30 us
 | | | |- sirius::Beta_projectors_base::prepare                            1       4.57 us       0.00       1.03       4.57 us       4.57 us       4.57 us
 | | |
 | | |- sirius::Band::initialize_subspace|kp                               1        4.47 s       2.07      99.99        4.47 s        4.47 s        4.47 s
 | | | |- sddk::matrix_storage::matrix_storage                             4     507.03 ms       0.24      11.35     126.29 ms     123.84 ms     130.62 ms
 | | | |- sirius::Band::initialize_subspace|kp|wf                          1     212.08 ms       0.10       4.75     212.08 ms     212.08 ms     212.08 ms
 | | | | |- sirius::K_point::generate_atomic_wave_functions                1     171.98 ms       0.08      81.10     171.98 ms     171.98 ms     171.98 ms
 | | | |
 | | | |- sirius::Hamiltonian_k::apply_h_s                                 1        2.87 s       1.33      64.31        2.87 s        2.87 s        2.87 s
 | | | | |- sirius::Local_operator::apply_h                                1        1.57 s       0.73      54.49        1.57 s        1.57 s        1.57 s
 | | | | | |- sddk::matrix_storage::remap_forward                          1     481.03 ms       0.22      30.72     481.03 ms     481.03 ms     481.03 ms
 | | | | | | |- sddk::matrix_storage::set_num_extra                        1     234.89 ms       0.11      48.83     234.89 ms     234.89 ms     234.89 ms
 | | | | | | | |- sddk::matrix_storage::set_num_extra|alloc                1     234.88 ms       0.11     100.00     234.88 ms     234.88 ms     234.88 ms
 | | | | | | |
 | | | | | | |- sddk::matrix_storage::remap_forward|mpi                    1     222.62 ms       0.10      46.28     222.62 ms     222.62 ms     222.62 ms
 | | | | | |
 | | | | | |- sddk::matrix_storage::set_num_extra                          1     249.83 ms       0.12      15.95     249.83 ms     249.83 ms     249.83 ms
 | | | | | | |- sddk::matrix_storage::set_num_extra|alloc                  1     249.82 ms       0.12     100.00     249.82 ms     249.82 ms     249.82 ms
 | | | | | |
 | | | | | |- sddk::matrix_storage::remap_backward                         1     206.27 ms       0.10      13.17     206.27 ms     206.27 ms     206.27 ms
 | | | | | | |- sddk::matrix_storage::remap_backward|mpi                   1     141.00 ms       0.07      68.36     141.00 ms     141.00 ms     141.00 ms
 | | | | |
 | | | | |- sirius::Beta_projectors_base::generate                         2      10.97 ms       0.01       0.38       5.49 ms       4.47 ms       6.50 ms
 | | | | |- sirius::Beta_projectors_base::inner                            2     719.23 ms       0.33      25.03     359.61 ms     343.47 ms     375.76 ms
 | | | | | |- sirius::Beta_projectors_base::inner|comm                     2     259.48 ms       0.12      36.08     129.74 ms     121.31 ms     138.17 ms
 | | | | |
 | | | | |- sirius::Non_local_operator::apply                              4     577.56 ms       0.27      20.10     144.47 ms     143.65 ms     144.96 ms
 | | | |
 | | | |- sirius::Band::set_subspace_mtrx                                  2     327.33 ms       0.15       7.33     163.67 ms     163.18 ms     164.15 ms
 | | | | |- sddk::inner                                                    2     326.90 ms       0.15      99.87     163.45 ms     162.97 ms     163.93 ms
 | | | | | |- sddk::inner|local                                            2      57.31 us       0.00       0.02      28.65 us      16.92 us      40.38 us
 | | | | | |- sddk::inner|device_copy                                      4     199.93 ms       0.09      61.16      49.08 ms       2.78 ms      98.99 ms
 | | | | | |- sddk::inner|store                                            4      10.08 ms       0.00       3.08       2.50 ms       1.94 ms       3.13 ms
 | | | | | |- sddk::inner|mpi                                              2     116.04 ms       0.05      35.50      58.02 ms      55.76 ms      60.27 ms
 | | | |
 | | | |- Eigensolver_cuda|dsygvd                                          1     257.70 ms       0.12       5.77     257.70 ms     257.70 ms     257.70 ms
 | | | |- sddk::transform                                                  1      40.45 ms       0.02       0.91      40.45 ms      40.45 ms      40.45 ms
 | | | | |- sddk::transform|init                                           1      15.89 us       0.00       0.04      15.89 us      15.89 us      15.89 us
 | | | | |- sddk::transform|local                                          1      19.35 us       0.00       0.05      19.35 us      19.35 us      19.35 us
 | | |
 | | |- sirius::Beta_projectors_base::dismiss                              1     731.00 ns       0.00       0.00     731.00 ns     731.00 ns     731.00 ns
 |
 |- qe|electrons                                                           1      189.75 s      88.08      88.08      189.75 s      189.75 s      189.75 s
 | |- sirius::Hamiltonian0                                                21     622.32 ms       0.29       0.33      26.20 ms      25.77 ms      86.04 ms
 | | |- sirius::Local_operator                                            21     596.17 ms       0.28      95.80      24.95 ms      24.53 ms      84.80 ms
 | | | |- sirius::Smooth_periodic_function                                21     102.64 ms       0.05      17.22       4.90 ms       4.71 ms       4.97 ms
 | | | |- sirius::Smooth_periodic_function::fft_transform                 21     351.95 ms       0.16      59.04      13.31 ms      12.89 ms      73.17 ms
 | | |
 | | |- sirius::Non_local_operator                                        42       3.18 ms       0.00       0.51      75.94 us      67.45 us      83.48 us
 | | |- sirius::D_operator::initialize                                    21       7.54 ms       0.00       1.21     359.08 us     347.77 us     365.54 us
 | | |- sirius::Q_operator::initialize                                    21      11.18 ms       0.01       1.80     529.01 us     522.94 us     557.44 us
 | |
 | |- sirius::Band::solve                                                 21      127.46 s      59.17      67.17        5.01 s        1.80 s       19.09 s
 | | |- sirius::Hamiltonian_k                                             21       8.18 ms       0.00       0.01     388.77 us     375.63 us     407.45 us
 | | | |- sirius::Local_operator::prepare_k                               21       8.03 ms       0.00      98.15     381.30 us     368.70 us     400.63 us
 | | | |- sirius::Beta_projectors_base::prepare                           21     106.18 us       0.00       1.30       5.05 us       4.50 us       5.65 us
 | | |
 | | |- sirius::Band::diag_pseudo_potential_davidson                      21      127.45 s      59.16      99.99        5.01 s        1.80 s       19.09 s
 | | | |- sirius::Band::diag_pseudo_potential_davidson|alloc              21        2.46 s       1.14       1.93      32.71 ms      32.66 ms        1.81 s
 | | | | |- sddk::matrix_storage::matrix_storage                         126        1.61 s       0.75      65.17     468.50 ns     282.00 ns        1.46 s
 | | | |
 | | | |- sirius::Hamiltonian_k::get_h_o_diag                             21     545.31 ms       0.25       0.43      25.88 ms      25.84 ms      27.75 ms
 | | | |- sirius::Band::diag_pseudo_potential_davidson|iter               21      123.91 s      57.52      97.22        4.93 s        1.72 s       19.01 s
 | | | | |- sirius::Hamiltonian_k::apply_h_s                             102       64.93 s      30.14      52.40     329.44 ms      35.49 ms        1.84 s
 | | | | | |- sirius::Local_operator::apply_h                            102       27.94 s      12.97      43.03     137.64 ms       6.98 ms        1.08 s
 | | | | | | |- sddk::matrix_storage::remap_forward                      102        4.97 s       2.31      17.80      24.26 ms       2.85 ms     413.89 ms
 | | | | | | | |- sddk::matrix_storage::set_num_extra                    102     154.51 ms       0.07       3.11       2.94 us       2.21 us     154.11 ms
 | | | | | | | | |- sddk::matrix_storage::set_num_extra|alloc             21     154.23 ms       0.07      99.82       6.11 us       5.20 us     154.11 ms
 | | | | | | | |
 | | | | | | | |- sddk::matrix_storage::remap_forward|mpi                102        4.18 s       1.94      84.11      20.96 ms       2.54 ms     246.24 ms
 | | | | | | |
 | | | | | | |- sddk::matrix_storage::set_num_extra                      102     154.91 ms       0.07       0.55       3.90 us       1.25 us     154.43 ms
 | | | | | | | |- sddk::matrix_storage::set_num_extra|alloc               21     154.61 ms       0.07      99.80       9.29 us       8.25 us     154.42 ms
 | | | | | | |
 | | | | | | |- sddk::matrix_storage::remap_backward                     102        5.61 s       2.60      20.06      28.15 ms     712.65 us     189.43 ms
 | | | | | | | |- sddk::matrix_storage::remap_backward|mpi               102        3.80 s       1.77      67.86      20.54 ms     422.11 us     149.92 ms
 | | | | | |
 | | | | | |- sirius::Beta_projectors_base::generate                     204     962.03 ms       0.45       1.48       4.46 ms       4.39 ms       5.72 ms
 | | | | | |- sirius::Beta_projectors_base::inner                        204       19.08 s       8.86      29.39      41.48 ms       2.81 ms     379.81 ms
 | | | | | | |- sirius::Beta_projectors_base::inner|comm                 204        7.75 s       3.60      40.59      16.65 ms     637.33 us     256.63 ms
 | | | | | |
 | | | | | |- sirius::Non_local_operator::apply                          408       16.94 s       7.86      26.09      23.63 ms       3.38 ms      91.58 ms
 | | | | |
 | | | | |- sddk::orthogonalize                                          102        9.19 s       4.26       7.41      74.11 ms       2.95 ms     353.89 ms
 | | | | | |- sddk::inner                                                183        3.92 s       1.82      42.67      10.52 ms     121.77 us     130.34 ms
 | | | | | | |- sddk::inner|local                                        183       4.26 ms       0.00       0.11      22.29 us      11.52 us      47.10 us
 | | | | | | |- sddk::inner|device_copy                                  366        2.30 s       1.07      58.74     903.28 us       9.16 us      62.52 ms
 | | | | | | |- sddk::inner|store                                        366     158.90 ms       0.07       4.05     108.36 us       1.83 us      25.23 ms
 | | | | | | |- sddk::inner|mpi                                          183        1.45 s       0.67      37.08       3.64 ms      50.67 us      88.58 ms
 | | | | | |
 | | | | | |- sddk::orthogonalize|tmtrx                                  102     296.12 ms       0.14       3.22     504.43 us      18.52 us      60.26 ms
 | | | | | |- sddk::orthogonalize|transform                              102        2.00 s       0.93      21.78       5.05 ms      71.18 us      50.62 ms
 | | | | | |- sddk::transform                                             81        2.97 s       1.38      32.32      24.67 ms       1.67 ms     137.87 ms
 | | | | | | |- sddk::transform|init                                      81       1.21 ms       0.00       0.04      14.01 us      12.39 us      24.36 us
 | | | | | | |- sddk::transform|local                                    243       3.47 ms       0.00       0.12       5.08 us       3.59 us     103.81 us
 | | | | |
 | | | | |- sirius::Band::set_subspace_mtrx                              102        4.89 s       2.27       3.95      38.00 ms       1.99 ms     208.13 ms
 | | | | | |- sddk::inner                                                102        4.15 s       1.92      84.74      26.68 ms     840.06 us     196.58 ms
 | | | | | | |- sddk::inner|local                                        102       4.81 ms       0.00       0.12      39.15 us      27.39 us      89.04 us
 | | | | | | |- sddk::inner|device_copy                                  204        2.46 s       1.14      59.29       1.95 ms      12.72 us      92.10 ms
 | | | | | | |- sddk::inner|store                                        204     109.27 ms       0.05       2.64     340.01 us       7.84 us       3.20 ms
 | | | | | | |- sddk::inner|mpi                                          102        1.57 s       0.73      37.91      10.70 ms      65.91 us      95.92 ms
 | | | | |
 | | | | |- sirius::Band::diag_pseudo_potential_davidson|evp             102       40.96 s      19.01      33.05     305.35 ms     103.71 ms        1.09 s
 | | | | | |- Eigensolver_cuda|dsyevd                                    102       40.96 s      19.01     100.00     305.35 ms     103.71 ms        1.09 s
 | | | | |
 | | | | |- sirius::residuals                                            102        2.84 s       1.32       2.29      21.29 ms      10.45 us     103.10 ms
 | | | | | |- sddk::transform                                             86        2.20 s       1.02      77.62      17.46 ms       1.19 ms      92.28 ms
 | | | | | | |- sddk::transform|init                                      86       1.22 ms       0.00       0.06      13.62 us      11.20 us      28.82 us
 | | | | | | |- sddk::transform|local                                    172       3.51 ms       0.00       0.16      14.21 us       4.82 us     121.79 us
 | | | | | |
 | | | | | |- sirius::normalized_preconditioned_residuals                 86     529.44 ms       0.25      18.67       5.34 ms     914.23 us      51.59 ms
 | | | | |
 | | | | |- sirius::Band::diag_pseudo_potential_davidson|update_phi       21        1.11 s       0.51       0.89      54.97 ms      24.87 ms      96.91 ms
 | | | | | |- sddk::transform                                             21        1.11 s       0.51      99.99      54.96 ms      24.86 ms      96.90 ms
 | | | | | | |- sddk::transform|init                                      21     214.45 us       0.00       0.02      11.26 us       5.33 us      12.63 us
 | | | | | | |- sddk::transform|local                                     21     372.68 us       0.00       0.03      18.19 us      15.25 us      19.25 us
 | | |
 | | |- sirius::Beta_projectors_base::dismiss                             21      11.63 us       0.00       0.00     531.00 ns     407.00 ns     713.00 ns
 | | |- sirius::K_point_set::sync_band_energies                           21     344.59 us       0.00       0.00      16.35 us      15.02 us      17.82 us
 | |
 | |- qe|sum_band                                                         21       31.39 s      14.57      16.54        1.48 s        1.46 s        1.67 s
 | | |- sirius::Density::generate                                         21       26.73 s      12.41      85.16        1.26 s        1.23 s        1.44 s
 | | | |- sirius::Density::generate_valence                               21       26.73 s      12.41     100.00        1.26 s        1.23 s        1.44 s
 | | | | |- sddk::matrix_storage::remap_forward                           21        1.83 s       0.85       6.84      80.92 ms      76.60 ms     150.49 ms
 | | | | | |- sddk::matrix_storage::set_num_extra                         21     148.17 us       0.00       0.01       6.55 us       5.75 us      15.20 us
 | | | | | | |- sddk::matrix_storage::set_num_extra|alloc                  1       6.57 us       0.00       4.43       6.57 us       6.57 us       6.57 us
 | | | | | |
 | | | | | |- sddk::matrix_storage::remap_forward|mpi                     21        1.60 s       0.74      87.25      69.97 ms      65.58 ms     136.26 ms
 | | | | |
 | | | | |- sirius::Density::add_k_point_contribution_dm                  21        7.47 s       3.47      27.95     348.72 ms     336.29 ms     433.47 ms
 | | | | | |- sirius::Beta_projectors_base::prepare                       21     223.84 us       0.00       0.00      10.63 us       9.98 us      11.42 us
 | | | | | |- sirius::Beta_projectors_base::generate                      42     191.52 ms       0.09       2.56       4.56 ms       4.50 ms       4.61 ms
 | | | | | |- sirius::Beta_projectors_base::inner                         42        7.23 s       3.36      96.74     168.06 ms     162.15 ms     221.37 ms
 | | | | | | |- sirius::Beta_projectors_base::inner|comm                  42        2.79 s       1.30      38.62      62.75 ms      54.61 ms     114.68 ms
 | | | | | |
 | | | | | |- sirius::Beta_projectors_base::dismiss                       21       9.58 us       0.00       0.00     441.00 ns     368.00 ns     690.00 ns
 | | | | |
 | | | | |- sirius::Density::add_k_point_contribution_rg                  21        3.51 s       1.63      13.14     167.22 ms     166.69 ms     167.59 ms
 | | | | |- sirius::Smooth_periodic_function::fft_transform               21     189.45 ms       0.09       0.71       9.02 ms       8.99 ms       9.07 ms
 | | | | |- sirius::Density::augment                                      21       11.74 s       5.45      43.90     558.87 ms     558.76 ms     558.94 ms
 | | | | | |- sirius::Density::generate_rho_aug                           21       11.72 s       5.44      99.88     558.19 ms     558.07 ms     558.24 ms
 | | |
 | | |- sirius_api::sirius_get_pw_coeffs                                  21        3.03 s       1.40       9.64     143.92 ms     143.25 ms     147.47 ms
 | | | |- sirius::Smooth_periodic_function::gather_f_pw                   21        1.73 s       0.80      57.07      82.08 ms      81.31 ms      85.62 ms
 | | |
 | | |- qe|sym_rho                                                        21      33.66 us       0.00       0.00       1.38 us       1.29 us       4.80 us
 | |
 | |- qe|mix                                                              21        3.10 s       1.44       1.63     162.12 ms       1.34 ms     193.43 ms
 | |- sirius_api::sirius_set_pw_coeffs                                    20        9.16 s       4.25       4.83     450.21 ms     432.55 ms     577.65 ms
 | | |- sirius::Smooth_periodic_function::fft_transform                   20     339.96 ms       0.16       3.71      15.76 ms      15.15 ms      26.92 ms
 | |
 | |- qe|newd                                                             20       11.42 s       5.30       6.02     567.20 ms     566.92 ms     641.19 ms
 | | |- sirius::Potential::generate_D_operator_matrix                     20       11.39 s       5.29      99.73     565.67 ms     565.36 ms     639.63 ms
 |
 |- sirius_api::sirius_get_wave_functions                                  1        1.54 s       0.72       0.72        1.54 s        1.54 s        1.54 s
 | |- sddk::matrix_storage::matrix_storage                                 1      15.58 us       0.00       0.00      15.58 us      15.58 us      15.58 us
 |
 |- qe|ions                                                                1     370.55 ms       0.17       0.17     370.55 ms     370.55 ms     370.55 ms
 | |- sirius_api::sirius_set_pw_coeffs                                     1     369.19 ms       0.17      99.63     369.19 ms     369.19 ms     369.19 ms
 | | |- sirius::Smooth_periodic_function::fft_transform                    1      15.47 ms       0.01       4.19      15.47 ms      15.47 ms      15.47 ms
 |
 |- qe|punch                                                               1     801.00 ns       0.00       0.00     801.00 ns     801.00 ns     801.00 ns
 |- sirius::finalize                                                       1     114.74 ms       0.05       0.05     114.74 ms     114.74 ms     114.74 ms

==========================================================================================================================================================
 
Batch Job Summary Report for Job "test_scf" (20934929) on daint
-----------------------------------------------------------------------------------------------------
             Submit            Eligible               Start                 End    Elapsed  Timelimit 
------------------- ------------------- ------------------- ------------------- ---------- ---------- 
2020-03-10T15:12:32 2020-03-10T15:12:32 2020-03-10T15:17:17 2020-03-10T15:21:44   00:04:27   00:20:00 
-----------------------------------------------------------------------------------------------------
Username    Account     Partition   NNodes   Energy
----------  ----------  ----------  ------  --------------
antonk      csstaff     normal           9        0 joules
----------------------------------------------------------
gpusecs  maxgpusecs        maxmem            summem
-------  ----------  ------------  ----------------
   1258        1258    8914993152       82698043392
----------------------------------------------------------
Scratch File System        Files       Quota
--------------------  ----------  ----------
/scratch/snx3000            2651     1000000
 
