
     Program PWSCF v.6.3MaX starts on  4Nov2019 at 15:52: 7 

     This program is part of the open-source Quantum ESPRESSO suite
     for quantum simulation of materials; please cite
         "P. Giannozzi et al., J. Phys.:Condens. Matter 21 395502 (2009);
         "P. Giannozzi et al., J. Phys.:Condens. Matter 29 465901 (2017);
          URL http://www.quantum-espresso.org", 
     in publications or presentations arising from this work. More details at
     http://www.quantum-espresso.org/quote

     Parallel version (MPI & OpenMP), running on     576 processor cores
     Number of MPI processes:               192
     Threads/MPI process:                     3

     MPI processes distributed on    16 nodes
     R & G space division:  proc/nbgrp/npool/nimage =     192
     Reading input from pw.in
     Message from routine read_cards :
     DEPRECATED: no units specified in CELL_PARAMETERS card
Warning: card 1 1 1  0 0 0 ignored

     Current dimensions of program PWSCF are:
     Max number of different atomic species (ntypx) = 10
     Max number of k-points (npk) =  40000
     Max angular momentum in pseudopotentials (lmaxx) =  3
     Message from routine iosys:
     minimal I/O required, wf_collect reset to FALSE

     gamma-point specific algorithms are used

     Subspace diagonalization in iterative solution of the eigenvalue problem:
     one sub-group per band group will be used
     scalapack distributed-memory algorithm (size of sub-group: 13* 13 procs)

 
     Parallelization info
     --------------------
     sticks:   dense  smooth     PW     G-vecs:    dense   smooth      PW
     Min         418     110     27                89402    12294    1524
     Max         422     112     30                89427    12324    1552
     Sum       80461   21449   5377             17166821  2364101  295907
 


     bravais-lattice index     =            0
     lattice parameter (alat)  =       1.0000  a.u.
     unit-cell volume          =   69174.1805 (a.u.)^3
     number of atoms/cell      =          512
     number of atomic types    =            2
     number of electrons       =      2058.00
     number of Kohn-Sham states=         1235
     kinetic-energy cutoff     =      40.0000  Ry
     charge density cutoff     =     600.0000  Ry
     convergence threshold     =      1.0E-10
     mixing beta               =       0.7000
     number of iterations used =            8  plain     mixing
     Exchange-correlation      =  SLA  PZ   NOGX NOGC ( 1  1  0  0 0 0)

     celldm(1)=   1.000000  celldm(2)=   0.000000  celldm(3)=   0.000000
     celldm(4)=   0.000000  celldm(5)=   0.000000  celldm(6)=   0.000000

     crystal axes: (cart. coord. in units of alat)
               a(1) = (  41.050143   0.000000   0.000000 )  
               a(2) = (   0.000000  41.050143   0.000000 )  
               a(3) = (   0.000000   0.000000  41.050143 )  

     reciprocal axes: (cart. coord. in units 2 pi/alat)
               b(1) = (  0.024360  0.000000  0.000000 )  
               b(2) = (  0.000000  0.024360  0.000000 )  
               b(3) = (  0.000000  0.000000  0.024360 )  


     PseudoPot. # 1 for Si read from file:
     ./si_lda_v1.uspp.F.UPF
     MD5 check sum: b5ade7b37ee992b02096e360e546dc2d
     Pseudo is Ultrasoft + core correction, Zval =  4.0
     Generated by new atomic code, or converted to UPF format
     Using radial grid of  899 points,  6 beta functions with: 
                l(1) =   0
                l(2) =   0
                l(3) =   1
                l(4) =   1
                l(5) =   2
                l(6) =   2
     Q(r) pseudized with  8 coefficients,  rinner =    0.900   0.900   0.900
                                                       0.900   0.900

     PseudoPot. # 2 for Ge read from file:
     ./ge_lda_v1.4.uspp.F.UPF
     MD5 check sum: bf9d52b59cc8a669818bb2b52e0c2ba0
     Pseudo is Ultrasoft + core correction, Zval = 14.0
     Generated by new atomic code, or converted to UPF format
     Using radial grid of  873 points,  6 beta functions with: 
                l(1) =   0
                l(2) =   0
                l(3) =   1
                l(4) =   1
                l(5) =   2
                l(6) =   2
     Q(r) pseudized with  8 coefficients,  rinner =    1.400   1.400   1.400
                                                       1.400   1.400

     atomic species   valence    mass     pseudopotential
        Si             4.00    28.08550     Si( 1.00)
        Ge            14.00    72.61000     Ge( 1.00)

     24 Sym. Ops. (no inversion) found



   Cartesian axes

     site n.     atom                  positions (alat units)
         1           Si  tau(   1) = (  20.5250715  20.5250715  20.5250715  )
         2           Si  tau(   2) = (  20.5250715  20.5250715  30.7876073  )
         3           Si  tau(   3) = (  20.5250715  20.5250715   0.0000000  )
         4           Si  tau(   4) = (  20.5250715  20.5250715  10.2625357  )
         5           Si  tau(   5) = (  20.5250715  30.7876073  20.5250715  )
         6           Si  tau(   6) = (  20.5250715  30.7876073  30.7876073  )
         7           Si  tau(   7) = (  20.5250715  30.7876073   0.0000000  )
         8           Si  tau(   8) = (  20.5250715  30.7876073  10.2625357  )
         9           Si  tau(   9) = (  20.5250715   0.0000000  20.5250715  )
        10           Si  tau(  10) = (  20.5250715   0.0000000  30.7876073  )
        11           Si  tau(  11) = (  20.5250715   0.0000000   0.0000000  )
        12           Si  tau(  12) = (  20.5250715   0.0000000  10.2625357  )
        13           Si  tau(  13) = (  20.5250715  10.2625357  20.5250715  )
        14           Si  tau(  14) = (  20.5250715  10.2625357  30.7876073  )
        15           Si  tau(  15) = (  20.5250715  10.2625357   0.0000000  )
        16           Si  tau(  16) = (  20.5250715  10.2625357  10.2625357  )
        17           Si  tau(  17) = (  30.7876073  20.5250715  20.5250715  )
        18           Si  tau(  18) = (  30.7876073  20.5250715  30.7876073  )
        19           Si  tau(  19) = (  30.7876073  20.5250715   0.0000000  )
        20           Si  tau(  20) = (  30.7876073  20.5250715  10.2625357  )
        21           Si  tau(  21) = (  30.7876073  30.7876073  20.5250715  )
        22           Si  tau(  22) = (  30.7876073  30.7876073  30.7876073  )
        23           Si  tau(  23) = (  30.7876073  30.7876073   0.0000000  )
        24           Si  tau(  24) = (  30.7876073  30.7876073  10.2625357  )
        25           Si  tau(  25) = (  30.7876073   0.0000000  20.5250715  )
        26           Si  tau(  26) = (  30.7876073   0.0000000  30.7876073  )
        27           Si  tau(  27) = (  30.7876073   0.0000000   0.0000000  )
        28           Si  tau(  28) = (  30.7876073   0.0000000  10.2625357  )
        29           Si  tau(  29) = (  30.7876073  10.2625357  20.5250715  )
        30           Si  tau(  30) = (  30.7876073  10.2625357  30.7876073  )
        31           Si  tau(  31) = (  30.7876073  10.2625357   0.0000000  )
        32           Si  tau(  32) = (  30.7876073  10.2625357  10.2625357  )
        33           Si  tau(  33) = (   0.0000000  20.5250715  20.5250715  )
        34           Si  tau(  34) = (   0.0000000  20.5250715  30.7876073  )
        35           Si  tau(  35) = (   0.0000000  20.5250715   0.0000000  )
        36           Si  tau(  36) = (   0.0000000  20.5250715  10.2625357  )
        37           Si  tau(  37) = (   0.0000000  30.7876073  20.5250715  )
        38           Si  tau(  38) = (   0.0000000  30.7876073  30.7876073  )
        39           Si  tau(  39) = (   0.0000000  30.7876073   0.0000000  )
        40           Si  tau(  40) = (   0.0000000  30.7876073  10.2625357  )
        41           Si  tau(  41) = (   0.0000000   0.0000000  20.5250715  )
        42           Si  tau(  42) = (   0.0000000   0.0000000  30.7876073  )
        43           Si  tau(  43) = (   0.0000000   0.0000000  10.2625357  )
        44           Si  tau(  44) = (   0.0000000  10.2625357  20.5250715  )
        45           Si  tau(  45) = (   0.0000000  10.2625357  30.7876073  )
        46           Si  tau(  46) = (   0.0000000  10.2625357   0.0000000  )
        47           Si  tau(  47) = (   0.0000000  10.2625357  10.2625357  )
        48           Si  tau(  48) = (  10.2625357  20.5250715  20.5250715  )
        49           Si  tau(  49) = (  10.2625357  20.5250715  30.7876073  )
        50           Si  tau(  50) = (  10.2625357  20.5250715   0.0000000  )
        51           Si  tau(  51) = (  10.2625357  20.5250715  10.2625357  )
        52           Si  tau(  52) = (  10.2625357  30.7876073  20.5250715  )
        53           Si  tau(  53) = (  10.2625357  30.7876073  30.7876073  )
        54           Si  tau(  54) = (  10.2625357  30.7876073   0.0000000  )
        55           Si  tau(  55) = (  10.2625357  30.7876073  10.2625357  )
        56           Si  tau(  56) = (  10.2625357   0.0000000  20.5250715  )
        57           Si  tau(  57) = (  10.2625357   0.0000000  30.7876073  )
        58           Si  tau(  58) = (  10.2625357   0.0000000   0.0000000  )
        59           Si  tau(  59) = (  10.2625357   0.0000000  10.2625357  )
        60           Si  tau(  60) = (  10.2625357  10.2625357  20.5250715  )
        61           Si  tau(  61) = (  10.2625357  10.2625357  30.7876073  )
        62           Si  tau(  62) = (  10.2625357  10.2625357   0.0000000  )
        63           Si  tau(  63) = (  10.2625357  10.2625357  10.2625357  )
        64           Si  tau(  64) = (  20.5250715  25.6563394  25.6563394  )
        65           Si  tau(  65) = (  20.5250715  25.6563394  35.9188751  )
        66           Si  tau(  66) = (  20.5250715  25.6563394   5.1312679  )
        67           Si  tau(  67) = (  20.5250715  25.6563394  15.3938036  )
        68           Si  tau(  68) = (  20.5250715  35.9188751  25.6563394  )
        69           Si  tau(  69) = (  20.5250715  35.9188751  35.9188751  )
        70           Si  tau(  70) = (  20.5250715  35.9188751   5.1312679  )
        71           Si  tau(  71) = (  20.5250715  35.9188751  15.3938036  )
        72           Si  tau(  72) = (  20.5250715   5.1312679  25.6563394  )
        73           Si  tau(  73) = (  20.5250715   5.1312679  35.9188751  )
        74           Si  tau(  74) = (  20.5250715   5.1312679   5.1312679  )
        75           Si  tau(  75) = (  20.5250715   5.1312679  15.3938036  )
        76           Si  tau(  76) = (  20.5250715  15.3938036  25.6563394  )
        77           Si  tau(  77) = (  20.5250715  15.3938036  35.9188751  )
        78           Si  tau(  78) = (  20.5250715  15.3938036   5.1312679  )
        79           Si  tau(  79) = (  20.5250715  15.3938036  15.3938036  )
        80           Si  tau(  80) = (  30.7876073  25.6563394  25.6563394  )
        81           Si  tau(  81) = (  30.7876073  25.6563394  35.9188751  )
        82           Si  tau(  82) = (  30.7876073  25.6563394   5.1312679  )
        83           Si  tau(  83) = (  30.7876073  25.6563394  15.3938036  )
        84           Si  tau(  84) = (  30.7876073  35.9188751  25.6563394  )
        85           Si  tau(  85) = (  30.7876073  35.9188751  35.9188751  )
        86           Si  tau(  86) = (  30.7876073  35.9188751   5.1312679  )
        87           Si  tau(  87) = (  30.7876073  35.9188751  15.3938036  )
        88           Si  tau(  88) = (  30.7876073   5.1312679  25.6563394  )
        89           Si  tau(  89) = (  30.7876073   5.1312679  35.9188751  )
        90           Si  tau(  90) = (  30.7876073   5.1312679   5.1312679  )
        91           Si  tau(  91) = (  30.7876073   5.1312679  15.3938036  )
        92           Si  tau(  92) = (  30.7876073  15.3938036  25.6563394  )
        93           Si  tau(  93) = (  30.7876073  15.3938036  35.9188751  )
        94           Si  tau(  94) = (  30.7876073  15.3938036   5.1312679  )
        95           Si  tau(  95) = (  30.7876073  15.3938036  15.3938036  )
        96           Si  tau(  96) = (   0.0000000  25.6563394  25.6563394  )
        97           Si  tau(  97) = (   0.0000000  25.6563394  35.9188751  )
        98           Si  tau(  98) = (   0.0000000  25.6563394   5.1312679  )
        99           Si  tau(  99) = (   0.0000000  25.6563394  15.3938036  )
       100           Si  tau( 100) = (   0.0000000  35.9188751  25.6563394  )
       101           Si  tau( 101) = (   0.0000000  35.9188751  35.9188751  )
       102           Si  tau( 102) = (   0.0000000  35.9188751   5.1312679  )
       103           Si  tau( 103) = (   0.0000000  35.9188751  15.3938036  )
       104           Si  tau( 104) = (   0.0000000   5.1312679  25.6563394  )
       105           Si  tau( 105) = (   0.0000000   5.1312679  35.9188751  )
       106           Si  tau( 106) = (   0.0000000   5.1312679   5.1312679  )
       107           Si  tau( 107) = (   0.0000000   5.1312679  15.3938036  )
       108           Si  tau( 108) = (   0.0000000  15.3938036  25.6563394  )
       109           Si  tau( 109) = (   0.0000000  15.3938036  35.9188751  )
       110           Si  tau( 110) = (   0.0000000  15.3938036   5.1312679  )
       111           Si  tau( 111) = (   0.0000000  15.3938036  15.3938036  )
       112           Si  tau( 112) = (  10.2625357  25.6563394  25.6563394  )
       113           Si  tau( 113) = (  10.2625357  25.6563394  35.9188751  )
       114           Si  tau( 114) = (  10.2625357  25.6563394   5.1312679  )
       115           Si  tau( 115) = (  10.2625357  25.6563394  15.3938036  )
       116           Si  tau( 116) = (  10.2625357  35.9188751  25.6563394  )
       117           Si  tau( 117) = (  10.2625357  35.9188751  35.9188751  )
       118           Si  tau( 118) = (  10.2625357  35.9188751   5.1312679  )
       119           Si  tau( 119) = (  10.2625357  35.9188751  15.3938036  )
       120           Si  tau( 120) = (  10.2625357   5.1312679  25.6563394  )
       121           Si  tau( 121) = (  10.2625357   5.1312679  35.9188751  )
       122           Si  tau( 122) = (  10.2625357   5.1312679   5.1312679  )
       123           Si  tau( 123) = (  10.2625357   5.1312679  15.3938036  )
       124           Si  tau( 124) = (  10.2625357  15.3938036  25.6563394  )
       125           Si  tau( 125) = (  10.2625357  15.3938036  35.9188751  )
       126           Si  tau( 126) = (  10.2625357  15.3938036   5.1312679  )
       127           Si  tau( 127) = (  10.2625357  15.3938036  15.3938036  )
       128           Si  tau( 128) = (  25.6563394  20.5250715  25.6563394  )
       129           Si  tau( 129) = (  25.6563394  20.5250715  35.9188751  )
       130           Si  tau( 130) = (  25.6563394  20.5250715   5.1312679  )
       131           Si  tau( 131) = (  25.6563394  20.5250715  15.3938036  )
       132           Si  tau( 132) = (  25.6563394  30.7876073  25.6563394  )
       133           Si  tau( 133) = (  25.6563394  30.7876073  35.9188751  )
       134           Si  tau( 134) = (  25.6563394  30.7876073   5.1312679  )
       135           Si  tau( 135) = (  25.6563394  30.7876073  15.3938036  )
       136           Si  tau( 136) = (  25.6563394   0.0000000  25.6563394  )
       137           Si  tau( 137) = (  25.6563394   0.0000000  35.9188751  )
       138           Si  tau( 138) = (  25.6563394   0.0000000   5.1312679  )
       139           Si  tau( 139) = (  25.6563394   0.0000000  15.3938036  )
       140           Si  tau( 140) = (  25.6563394  10.2625357  25.6563394  )
       141           Si  tau( 141) = (  25.6563394  10.2625357  35.9188751  )
       142           Si  tau( 142) = (  25.6563394  10.2625357   5.1312679  )
       143           Si  tau( 143) = (  25.6563394  10.2625357  15.3938036  )
       144           Si  tau( 144) = (  35.9188751  20.5250715  25.6563394  )
       145           Si  tau( 145) = (  35.9188751  20.5250715  35.9188751  )
       146           Si  tau( 146) = (  35.9188751  20.5250715   5.1312679  )
       147           Si  tau( 147) = (  35.9188751  20.5250715  15.3938036  )
       148           Si  tau( 148) = (  35.9188751  30.7876073  25.6563394  )
       149           Si  tau( 149) = (  35.9188751  30.7876073  35.9188751  )
       150           Si  tau( 150) = (  35.9188751  30.7876073   5.1312679  )
       151           Si  tau( 151) = (  35.9188751  30.7876073  15.3938036  )
       152           Si  tau( 152) = (  35.9188751   0.0000000  25.6563394  )
       153           Si  tau( 153) = (  35.9188751   0.0000000  35.9188751  )
       154           Si  tau( 154) = (  35.9188751   0.0000000   5.1312679  )
       155           Si  tau( 155) = (  35.9188751   0.0000000  15.3938036  )
       156           Si  tau( 156) = (  35.9188751  10.2625357  25.6563394  )
       157           Si  tau( 157) = (  35.9188751  10.2625357  35.9188751  )
       158           Si  tau( 158) = (  35.9188751  10.2625357   5.1312679  )
       159           Si  tau( 159) = (  35.9188751  10.2625357  15.3938036  )
       160           Si  tau( 160) = (   5.1312679  20.5250715  25.6563394  )
       161           Si  tau( 161) = (   5.1312679  20.5250715  35.9188751  )
       162           Si  tau( 162) = (   5.1312679  20.5250715   5.1312679  )
       163           Si  tau( 163) = (   5.1312679  20.5250715  15.3938036  )
       164           Si  tau( 164) = (   5.1312679  30.7876073  25.6563394  )
       165           Si  tau( 165) = (   5.1312679  30.7876073  35.9188751  )
       166           Si  tau( 166) = (   5.1312679  30.7876073   5.1312679  )
       167           Si  tau( 167) = (   5.1312679  30.7876073  15.3938036  )
       168           Si  tau( 168) = (   5.1312679   0.0000000  25.6563394  )
       169           Si  tau( 169) = (   5.1312679   0.0000000  35.9188751  )
       170           Si  tau( 170) = (   5.1312679   0.0000000   5.1312679  )
       171           Si  tau( 171) = (   5.1312679   0.0000000  15.3938036  )
       172           Si  tau( 172) = (   5.1312679  10.2625357  25.6563394  )
       173           Si  tau( 173) = (   5.1312679  10.2625357  35.9188751  )
       174           Si  tau( 174) = (   5.1312679  10.2625357   5.1312679  )
       175           Si  tau( 175) = (   5.1312679  10.2625357  15.3938036  )
       176           Si  tau( 176) = (  15.3938036  20.5250715  25.6563394  )
       177           Si  tau( 177) = (  15.3938036  20.5250715  35.9188751  )
       178           Si  tau( 178) = (  15.3938036  20.5250715   5.1312679  )
       179           Si  tau( 179) = (  15.3938036  20.5250715  15.3938036  )
       180           Si  tau( 180) = (  15.3938036  30.7876073  25.6563394  )
       181           Si  tau( 181) = (  15.3938036  30.7876073  35.9188751  )
       182           Si  tau( 182) = (  15.3938036  30.7876073   5.1312679  )
       183           Si  tau( 183) = (  15.3938036  30.7876073  15.3938036  )
       184           Si  tau( 184) = (  15.3938036   0.0000000  25.6563394  )
       185           Si  tau( 185) = (  15.3938036   0.0000000  35.9188751  )
       186           Si  tau( 186) = (  15.3938036   0.0000000   5.1312679  )
       187           Si  tau( 187) = (  15.3938036   0.0000000  15.3938036  )
       188           Si  tau( 188) = (  15.3938036  10.2625357  25.6563394  )
       189           Si  tau( 189) = (  15.3938036  10.2625357  35.9188751  )
       190           Si  tau( 190) = (  15.3938036  10.2625357   5.1312679  )
       191           Si  tau( 191) = (  15.3938036  10.2625357  15.3938036  )
       192           Si  tau( 192) = (  25.6563394  25.6563394  20.5250715  )
       193           Si  tau( 193) = (  25.6563394  25.6563394  30.7876073  )
       194           Si  tau( 194) = (  25.6563394  25.6563394   0.0000000  )
       195           Si  tau( 195) = (  25.6563394  25.6563394  10.2625357  )
       196           Si  tau( 196) = (  25.6563394  35.9188751  20.5250715  )
       197           Si  tau( 197) = (  25.6563394  35.9188751  30.7876073  )
       198           Si  tau( 198) = (  25.6563394  35.9188751   0.0000000  )
       199           Si  tau( 199) = (  25.6563394  35.9188751  10.2625357  )
       200           Si  tau( 200) = (  25.6563394   5.1312679  20.5250715  )
       201           Si  tau( 201) = (  25.6563394   5.1312679  30.7876073  )
       202           Si  tau( 202) = (  25.6563394   5.1312679   0.0000000  )
       203           Si  tau( 203) = (  25.6563394   5.1312679  10.2625357  )
       204           Si  tau( 204) = (  25.6563394  15.3938036  20.5250715  )
       205           Si  tau( 205) = (  25.6563394  15.3938036  30.7876073  )
       206           Si  tau( 206) = (  25.6563394  15.3938036   0.0000000  )
       207           Si  tau( 207) = (  25.6563394  15.3938036  10.2625357  )
       208           Si  tau( 208) = (  35.9188751  25.6563394  20.5250715  )
       209           Si  tau( 209) = (  35.9188751  25.6563394  30.7876073  )
       210           Si  tau( 210) = (  35.9188751  25.6563394   0.0000000  )
       211           Si  tau( 211) = (  35.9188751  25.6563394  10.2625357  )
       212           Si  tau( 212) = (  35.9188751  35.9188751  20.5250715  )
       213           Si  tau( 213) = (  35.9188751  35.9188751  30.7876073  )
       214           Si  tau( 214) = (  35.9188751  35.9188751   0.0000000  )
       215           Si  tau( 215) = (  35.9188751  35.9188751  10.2625357  )
       216           Si  tau( 216) = (  35.9188751   5.1312679  20.5250715  )
       217           Si  tau( 217) = (  35.9188751   5.1312679  30.7876073  )
       218           Si  tau( 218) = (  35.9188751   5.1312679   0.0000000  )
       219           Si  tau( 219) = (  35.9188751   5.1312679  10.2625357  )
       220           Si  tau( 220) = (  35.9188751  15.3938036  20.5250715  )
       221           Si  tau( 221) = (  35.9188751  15.3938036  30.7876073  )
       222           Si  tau( 222) = (  35.9188751  15.3938036   0.0000000  )
       223           Si  tau( 223) = (  35.9188751  15.3938036  10.2625357  )
       224           Si  tau( 224) = (   5.1312679  25.6563394  20.5250715  )
       225           Si  tau( 225) = (   5.1312679  25.6563394  30.7876073  )
       226           Si  tau( 226) = (   5.1312679  25.6563394   0.0000000  )
       227           Si  tau( 227) = (   5.1312679  25.6563394  10.2625357  )
       228           Si  tau( 228) = (   5.1312679  35.9188751  20.5250715  )
       229           Si  tau( 229) = (   5.1312679  35.9188751  30.7876073  )
       230           Si  tau( 230) = (   5.1312679  35.9188751   0.0000000  )
       231           Si  tau( 231) = (   5.1312679  35.9188751  10.2625357  )
       232           Si  tau( 232) = (   5.1312679   5.1312679  20.5250715  )
       233           Si  tau( 233) = (   5.1312679   5.1312679  30.7876073  )
       234           Si  tau( 234) = (   5.1312679   5.1312679   0.0000000  )
       235           Si  tau( 235) = (   5.1312679   5.1312679  10.2625357  )
       236           Si  tau( 236) = (   5.1312679  15.3938036  20.5250715  )
       237           Si  tau( 237) = (   5.1312679  15.3938036  30.7876073  )
       238           Si  tau( 238) = (   5.1312679  15.3938036   0.0000000  )
       239           Si  tau( 239) = (   5.1312679  15.3938036  10.2625357  )
       240           Si  tau( 240) = (  15.3938036  25.6563394  20.5250715  )
       241           Si  tau( 241) = (  15.3938036  25.6563394  30.7876073  )
       242           Si  tau( 242) = (  15.3938036  25.6563394   0.0000000  )
       243           Si  tau( 243) = (  15.3938036  25.6563394  10.2625357  )
       244           Si  tau( 244) = (  15.3938036  35.9188751  20.5250715  )
       245           Si  tau( 245) = (  15.3938036  35.9188751  30.7876073  )
       246           Si  tau( 246) = (  15.3938036  35.9188751   0.0000000  )
       247           Si  tau( 247) = (  15.3938036  35.9188751  10.2625357  )
       248           Si  tau( 248) = (  15.3938036   5.1312679  20.5250715  )
       249           Si  tau( 249) = (  15.3938036   5.1312679  30.7876073  )
       250           Si  tau( 250) = (  15.3938036   5.1312679   0.0000000  )
       251           Si  tau( 251) = (  15.3938036   5.1312679  10.2625357  )
       252           Si  tau( 252) = (  15.3938036  15.3938036  20.5250715  )
       253           Si  tau( 253) = (  15.3938036  15.3938036  30.7876073  )
       254           Si  tau( 254) = (  15.3938036  15.3938036   0.0000000  )
       255           Si  tau( 255) = (  15.3938036  15.3938036  10.2625357  )
       256           Si  tau( 256) = (  28.2219733  28.2219733  23.0907054  )
       257           Si  tau( 257) = (  28.2219733  28.2219733  33.3532412  )
       258           Si  tau( 258) = (  28.2219733  28.2219733   2.5656339  )
       259           Si  tau( 259) = (  28.2219733  28.2219733  12.8281697  )
       260           Si  tau( 260) = (  28.2219733  38.4845091  23.0907054  )
       261           Si  tau( 261) = (  28.2219733  38.4845091  33.3532412  )
       262           Si  tau( 262) = (  28.2219733  38.4845091   2.5656339  )
       263           Si  tau( 263) = (  28.2219733  38.4845091  12.8281697  )
       264           Si  tau( 264) = (  28.2219733   7.6969018  23.0907054  )
       265           Si  tau( 265) = (  28.2219733   7.6969018  33.3532412  )
       266           Si  tau( 266) = (  28.2219733   7.6969018   2.5656339  )
       267           Si  tau( 267) = (  28.2219733   7.6969018  12.8281697  )
       268           Si  tau( 268) = (  28.2219733  17.9594376  23.0907054  )
       269           Si  tau( 269) = (  28.2219733  17.9594376  33.3532412  )
       270           Si  tau( 270) = (  28.2219733  17.9594376   2.5656339  )
       271           Si  tau( 271) = (  28.2219733  17.9594376  12.8281697  )
       272           Si  tau( 272) = (  38.4845091  28.2219733  23.0907054  )
       273           Si  tau( 273) = (  38.4845091  28.2219733  33.3532412  )
       274           Si  tau( 274) = (  38.4845091  28.2219733   2.5656339  )
       275           Si  tau( 275) = (  38.4845091  28.2219733  12.8281697  )
       276           Si  tau( 276) = (  38.4845091  38.4845091  23.0907054  )
       277           Si  tau( 277) = (  38.4845091  38.4845091  33.3532412  )
       278           Si  tau( 278) = (  38.4845091  38.4845091   2.5656339  )
       279           Si  tau( 279) = (  38.4845091  38.4845091  12.8281697  )
       280           Si  tau( 280) = (  38.4845091   7.6969018  23.0907054  )
       281           Si  tau( 281) = (  38.4845091   7.6969018  33.3532412  )
       282           Si  tau( 282) = (  38.4845091   7.6969018   2.5656339  )
       283           Si  tau( 283) = (  38.4845091   7.6969018  12.8281697  )
       284           Si  tau( 284) = (  38.4845091  17.9594376  23.0907054  )
       285           Si  tau( 285) = (  38.4845091  17.9594376  33.3532412  )
       286           Si  tau( 286) = (  38.4845091  17.9594376   2.5656339  )
       287           Si  tau( 287) = (  38.4845091  17.9594376  12.8281697  )
       288           Si  tau( 288) = (   7.6969018  28.2219733  23.0907054  )
       289           Si  tau( 289) = (   7.6969018  28.2219733  33.3532412  )
       290           Si  tau( 290) = (   7.6969018  28.2219733   2.5656339  )
       291           Si  tau( 291) = (   7.6969018  28.2219733  12.8281697  )
       292           Si  tau( 292) = (   7.6969018  38.4845091  23.0907054  )
       293           Si  tau( 293) = (   7.6969018  38.4845091  33.3532412  )
       294           Si  tau( 294) = (   7.6969018  38.4845091   2.5656339  )
       295           Si  tau( 295) = (   7.6969018  38.4845091  12.8281697  )
       296           Si  tau( 296) = (   7.6969018   7.6969018  23.0907054  )
       297           Si  tau( 297) = (   7.6969018   7.6969018  33.3532412  )
       298           Si  tau( 298) = (   7.6969018   7.6969018   2.5656339  )
       299           Si  tau( 299) = (   7.6969018   7.6969018  12.8281697  )
       300           Si  tau( 300) = (   7.6969018  17.9594376  23.0907054  )
       301           Si  tau( 301) = (   7.6969018  17.9594376  33.3532412  )
       302           Si  tau( 302) = (   7.6969018  17.9594376   2.5656339  )
       303           Si  tau( 303) = (   7.6969018  17.9594376  12.8281697  )
       304           Si  tau( 304) = (  17.9594376  28.2219733  23.0907054  )
       305           Si  tau( 305) = (  17.9594376  28.2219733  33.3532412  )
       306           Si  tau( 306) = (  17.9594376  28.2219733   2.5656339  )
       307           Si  tau( 307) = (  17.9594376  28.2219733  12.8281697  )
       308           Si  tau( 308) = (  17.9594376  38.4845091  23.0907054  )
       309           Si  tau( 309) = (  17.9594376  38.4845091  33.3532412  )
       310           Si  tau( 310) = (  17.9594376  38.4845091   2.5656339  )
       311           Si  tau( 311) = (  17.9594376  38.4845091  12.8281697  )
       312           Si  tau( 312) = (  17.9594376   7.6969018  23.0907054  )
       313           Si  tau( 313) = (  17.9594376   7.6969018  33.3532412  )
       314           Si  tau( 314) = (  17.9594376   7.6969018   2.5656339  )
       315           Si  tau( 315) = (  17.9594376   7.6969018  12.8281697  )
       316           Si  tau( 316) = (  17.9594376  17.9594376  23.0907054  )
       317           Si  tau( 317) = (  17.9594376  17.9594376  33.3532412  )
       318           Si  tau( 318) = (  17.9594376  17.9594376   2.5656339  )
       319           Si  tau( 319) = (  17.9594376  17.9594376  12.8281697  )
       320           Si  tau( 320) = (  28.2219733  23.0907054  28.2219733  )
       321           Si  tau( 321) = (  28.2219733  23.0907054  38.4845091  )
       322           Si  tau( 322) = (  28.2219733  23.0907054   7.6969018  )
       323           Si  tau( 323) = (  28.2219733  23.0907054  17.9594376  )
       324           Si  tau( 324) = (  28.2219733  33.3532412  28.2219733  )
       325           Si  tau( 325) = (  28.2219733  33.3532412  38.4845091  )
       326           Si  tau( 326) = (  28.2219733  33.3532412   7.6969018  )
       327           Si  tau( 327) = (  28.2219733  33.3532412  17.9594376  )
       328           Si  tau( 328) = (  28.2219733   2.5656339  28.2219733  )
       329           Si  tau( 329) = (  28.2219733   2.5656339  38.4845091  )
       330           Si  tau( 330) = (  28.2219733   2.5656339   7.6969018  )
       331           Si  tau( 331) = (  28.2219733   2.5656339  17.9594376  )
       332           Si  tau( 332) = (  28.2219733  12.8281697  28.2219733  )
       333           Si  tau( 333) = (  28.2219733  12.8281697  38.4845091  )
       334           Si  tau( 334) = (  28.2219733  12.8281697   7.6969018  )
       335           Si  tau( 335) = (  28.2219733  12.8281697  17.9594376  )
       336           Si  tau( 336) = (  38.4845091  23.0907054  28.2219733  )
       337           Si  tau( 337) = (  38.4845091  23.0907054  38.4845091  )
       338           Si  tau( 338) = (  38.4845091  23.0907054   7.6969018  )
       339           Si  tau( 339) = (  38.4845091  23.0907054  17.9594376  )
       340           Si  tau( 340) = (  38.4845091  33.3532412  28.2219733  )
       341           Si  tau( 341) = (  38.4845091  33.3532412  38.4845091  )
       342           Si  tau( 342) = (  38.4845091  33.3532412   7.6969018  )
       343           Si  tau( 343) = (  38.4845091  33.3532412  17.9594376  )
       344           Si  tau( 344) = (  38.4845091   2.5656339  28.2219733  )
       345           Si  tau( 345) = (  38.4845091   2.5656339  38.4845091  )
       346           Si  tau( 346) = (  38.4845091   2.5656339   7.6969018  )
       347           Si  tau( 347) = (  38.4845091   2.5656339  17.9594376  )
       348           Si  tau( 348) = (  38.4845091  12.8281697  28.2219733  )
       349           Si  tau( 349) = (  38.4845091  12.8281697  38.4845091  )
       350           Si  tau( 350) = (  38.4845091  12.8281697   7.6969018  )
       351           Si  tau( 351) = (  38.4845091  12.8281697  17.9594376  )
       352           Si  tau( 352) = (   7.6969018  23.0907054  28.2219733  )
       353           Si  tau( 353) = (   7.6969018  23.0907054  38.4845091  )
       354           Si  tau( 354) = (   7.6969018  23.0907054   7.6969018  )
       355           Si  tau( 355) = (   7.6969018  23.0907054  17.9594376  )
       356           Si  tau( 356) = (   7.6969018  33.3532412  28.2219733  )
       357           Si  tau( 357) = (   7.6969018  33.3532412  38.4845091  )
       358           Si  tau( 358) = (   7.6969018  33.3532412   7.6969018  )
       359           Si  tau( 359) = (   7.6969018  33.3532412  17.9594376  )
       360           Si  tau( 360) = (   7.6969018   2.5656339  28.2219733  )
       361           Si  tau( 361) = (   7.6969018   2.5656339  38.4845091  )
       362           Si  tau( 362) = (   7.6969018   2.5656339   7.6969018  )
       363           Si  tau( 363) = (   7.6969018   2.5656339  17.9594376  )
       364           Si  tau( 364) = (   7.6969018  12.8281697  28.2219733  )
       365           Si  tau( 365) = (   7.6969018  12.8281697  38.4845091  )
       366           Si  tau( 366) = (   7.6969018  12.8281697   7.6969018  )
       367           Si  tau( 367) = (   7.6969018  12.8281697  17.9594376  )
       368           Si  tau( 368) = (  17.9594376  23.0907054  28.2219733  )
       369           Si  tau( 369) = (  17.9594376  23.0907054  38.4845091  )
       370           Si  tau( 370) = (  17.9594376  23.0907054   7.6969018  )
       371           Si  tau( 371) = (  17.9594376  23.0907054  17.9594376  )
       372           Si  tau( 372) = (  17.9594376  33.3532412  28.2219733  )
       373           Si  tau( 373) = (  17.9594376  33.3532412  38.4845091  )
       374           Si  tau( 374) = (  17.9594376  33.3532412   7.6969018  )
       375           Si  tau( 375) = (  17.9594376  33.3532412  17.9594376  )
       376           Si  tau( 376) = (  17.9594376   2.5656339  28.2219733  )
       377           Si  tau( 377) = (  17.9594376   2.5656339  38.4845091  )
       378           Si  tau( 378) = (  17.9594376   2.5656339   7.6969018  )
       379           Si  tau( 379) = (  17.9594376   2.5656339  17.9594376  )
       380           Si  tau( 380) = (  17.9594376  12.8281697  28.2219733  )
       381           Si  tau( 381) = (  17.9594376  12.8281697  38.4845091  )
       382           Si  tau( 382) = (  17.9594376  12.8281697   7.6969018  )
       383           Si  tau( 383) = (  17.9594376  12.8281697  17.9594376  )
       384           Si  tau( 384) = (  23.0907054  28.2219733  28.2219733  )
       385           Si  tau( 385) = (  23.0907054  28.2219733  38.4845091  )
       386           Si  tau( 386) = (  23.0907054  28.2219733   7.6969018  )
       387           Si  tau( 387) = (  23.0907054  28.2219733  17.9594376  )
       388           Si  tau( 388) = (  23.0907054  38.4845091  28.2219733  )
       389           Si  tau( 389) = (  23.0907054  38.4845091  38.4845091  )
       390           Si  tau( 390) = (  23.0907054  38.4845091   7.6969018  )
       391           Si  tau( 391) = (  23.0907054  38.4845091  17.9594376  )
       392           Si  tau( 392) = (  23.0907054   7.6969018  28.2219733  )
       393           Si  tau( 393) = (  23.0907054   7.6969018  38.4845091  )
       394           Si  tau( 394) = (  23.0907054   7.6969018   7.6969018  )
       395           Si  tau( 395) = (  23.0907054   7.6969018  17.9594376  )
       396           Si  tau( 396) = (  23.0907054  17.9594376  28.2219733  )
       397           Si  tau( 397) = (  23.0907054  17.9594376  38.4845091  )
       398           Si  tau( 398) = (  23.0907054  17.9594376   7.6969018  )
       399           Si  tau( 399) = (  23.0907054  17.9594376  17.9594376  )
       400           Si  tau( 400) = (  33.3532412  28.2219733  28.2219733  )
       401           Si  tau( 401) = (  33.3532412  28.2219733  38.4845091  )
       402           Si  tau( 402) = (  33.3532412  28.2219733   7.6969018  )
       403           Si  tau( 403) = (  33.3532412  28.2219733  17.9594376  )
       404           Si  tau( 404) = (  33.3532412  38.4845091  28.2219733  )
       405           Si  tau( 405) = (  33.3532412  38.4845091  38.4845091  )
       406           Si  tau( 406) = (  33.3532412  38.4845091   7.6969018  )
       407           Si  tau( 407) = (  33.3532412  38.4845091  17.9594376  )
       408           Si  tau( 408) = (  33.3532412   7.6969018  28.2219733  )
       409           Si  tau( 409) = (  33.3532412   7.6969018  38.4845091  )
       410           Si  tau( 410) = (  33.3532412   7.6969018   7.6969018  )
       411           Si  tau( 411) = (  33.3532412   7.6969018  17.9594376  )
       412           Si  tau( 412) = (  33.3532412  17.9594376  28.2219733  )
       413           Si  tau( 413) = (  33.3532412  17.9594376  38.4845091  )
       414           Si  tau( 414) = (  33.3532412  17.9594376   7.6969018  )
       415           Si  tau( 415) = (  33.3532412  17.9594376  17.9594376  )
       416           Si  tau( 416) = (   2.5656339  28.2219733  28.2219733  )
       417           Si  tau( 417) = (   2.5656339  28.2219733  38.4845091  )
       418           Si  tau( 418) = (   2.5656339  28.2219733   7.6969018  )
       419           Si  tau( 419) = (   2.5656339  28.2219733  17.9594376  )
       420           Si  tau( 420) = (   2.5656339  38.4845091  28.2219733  )
       421           Si  tau( 421) = (   2.5656339  38.4845091  38.4845091  )
       422           Si  tau( 422) = (   2.5656339  38.4845091   7.6969018  )
       423           Si  tau( 423) = (   2.5656339  38.4845091  17.9594376  )
       424           Si  tau( 424) = (   2.5656339   7.6969018  28.2219733  )
       425           Si  tau( 425) = (   2.5656339   7.6969018  38.4845091  )
       426           Si  tau( 426) = (   2.5656339   7.6969018   7.6969018  )
       427           Si  tau( 427) = (   2.5656339   7.6969018  17.9594376  )
       428           Si  tau( 428) = (   2.5656339  17.9594376  28.2219733  )
       429           Si  tau( 429) = (   2.5656339  17.9594376  38.4845091  )
       430           Si  tau( 430) = (   2.5656339  17.9594376   7.6969018  )
       431           Si  tau( 431) = (   2.5656339  17.9594376  17.9594376  )
       432           Si  tau( 432) = (  12.8281697  28.2219733  28.2219733  )
       433           Si  tau( 433) = (  12.8281697  28.2219733  38.4845091  )
       434           Si  tau( 434) = (  12.8281697  28.2219733   7.6969018  )
       435           Si  tau( 435) = (  12.8281697  28.2219733  17.9594376  )
       436           Si  tau( 436) = (  12.8281697  38.4845091  28.2219733  )
       437           Si  tau( 437) = (  12.8281697  38.4845091  38.4845091  )
       438           Si  tau( 438) = (  12.8281697  38.4845091   7.6969018  )
       439           Si  tau( 439) = (  12.8281697  38.4845091  17.9594376  )
       440           Si  tau( 440) = (  12.8281697   7.6969018  28.2219733  )
       441           Si  tau( 441) = (  12.8281697   7.6969018  38.4845091  )
       442           Si  tau( 442) = (  12.8281697   7.6969018   7.6969018  )
       443           Si  tau( 443) = (  12.8281697   7.6969018  17.9594376  )
       444           Si  tau( 444) = (  12.8281697  17.9594376  28.2219733  )
       445           Si  tau( 445) = (  12.8281697  17.9594376  38.4845091  )
       446           Si  tau( 446) = (  12.8281697  17.9594376   7.6969018  )
       447           Si  tau( 447) = (  12.8281697  17.9594376  17.9594376  )
       448           Si  tau( 448) = (  23.0907054  23.0907054  23.0907054  )
       449           Si  tau( 449) = (  23.0907054  23.0907054  33.3532412  )
       450           Si  tau( 450) = (  23.0907054  23.0907054   2.5656339  )
       451           Si  tau( 451) = (  23.0907054  23.0907054  12.8281697  )
       452           Si  tau( 452) = (  23.0907054  33.3532412  23.0907054  )
       453           Si  tau( 453) = (  23.0907054  33.3532412  33.3532412  )
       454           Si  tau( 454) = (  23.0907054  33.3532412   2.5656339  )
       455           Si  tau( 455) = (  23.0907054  33.3532412  12.8281697  )
       456           Si  tau( 456) = (  23.0907054   2.5656339  23.0907054  )
       457           Si  tau( 457) = (  23.0907054   2.5656339  33.3532412  )
       458           Si  tau( 458) = (  23.0907054   2.5656339   2.5656339  )
       459           Si  tau( 459) = (  23.0907054   2.5656339  12.8281697  )
       460           Si  tau( 460) = (  23.0907054  12.8281697  23.0907054  )
       461           Si  tau( 461) = (  23.0907054  12.8281697  33.3532412  )
       462           Si  tau( 462) = (  23.0907054  12.8281697   2.5656339  )
       463           Si  tau( 463) = (  23.0907054  12.8281697  12.8281697  )
       464           Si  tau( 464) = (  33.3532412  23.0907054  23.0907054  )
       465           Si  tau( 465) = (  33.3532412  23.0907054  33.3532412  )
       466           Si  tau( 466) = (  33.3532412  23.0907054   2.5656339  )
       467           Si  tau( 467) = (  33.3532412  23.0907054  12.8281697  )
       468           Si  tau( 468) = (  33.3532412  33.3532412  23.0907054  )
       469           Si  tau( 469) = (  33.3532412  33.3532412  33.3532412  )
       470           Si  tau( 470) = (  33.3532412  33.3532412   2.5656339  )
       471           Si  tau( 471) = (  33.3532412  33.3532412  12.8281697  )
       472           Si  tau( 472) = (  33.3532412   2.5656339  23.0907054  )
       473           Si  tau( 473) = (  33.3532412   2.5656339  33.3532412  )
       474           Si  tau( 474) = (  33.3532412   2.5656339   2.5656339  )
       475           Si  tau( 475) = (  33.3532412   2.5656339  12.8281697  )
       476           Si  tau( 476) = (  33.3532412  12.8281697  23.0907054  )
       477           Si  tau( 477) = (  33.3532412  12.8281697  33.3532412  )
       478           Si  tau( 478) = (  33.3532412  12.8281697   2.5656339  )
       479           Si  tau( 479) = (  33.3532412  12.8281697  12.8281697  )
       480           Si  tau( 480) = (   2.5656339  23.0907054  23.0907054  )
       481           Si  tau( 481) = (   2.5656339  23.0907054  33.3532412  )
       482           Si  tau( 482) = (   2.5656339  23.0907054   2.5656339  )
       483           Si  tau( 483) = (   2.5656339  23.0907054  12.8281697  )
       484           Si  tau( 484) = (   2.5656339  33.3532412  23.0907054  )
       485           Si  tau( 485) = (   2.5656339  33.3532412  33.3532412  )
       486           Si  tau( 486) = (   2.5656339  33.3532412   2.5656339  )
       487           Si  tau( 487) = (   2.5656339  33.3532412  12.8281697  )
       488           Si  tau( 488) = (   2.5656339   2.5656339  23.0907054  )
       489           Si  tau( 489) = (   2.5656339   2.5656339  33.3532412  )
       490           Si  tau( 490) = (   2.5656339   2.5656339   2.5656339  )
       491           Si  tau( 491) = (   2.5656339   2.5656339  12.8281697  )
       492           Si  tau( 492) = (   2.5656339  12.8281697  23.0907054  )
       493           Si  tau( 493) = (   2.5656339  12.8281697  33.3532412  )
       494           Si  tau( 494) = (   2.5656339  12.8281697   2.5656339  )
       495           Si  tau( 495) = (   2.5656339  12.8281697  12.8281697  )
       496           Si  tau( 496) = (  12.8281697  23.0907054  23.0907054  )
       497           Si  tau( 497) = (  12.8281697  23.0907054  33.3532412  )
       498           Si  tau( 498) = (  12.8281697  23.0907054   2.5656339  )
       499           Si  tau( 499) = (  12.8281697  23.0907054  12.8281697  )
       500           Si  tau( 500) = (  12.8281697  33.3532412  23.0907054  )
       501           Si  tau( 501) = (  12.8281697  33.3532412  33.3532412  )
       502           Si  tau( 502) = (  12.8281697  33.3532412   2.5656339  )
       503           Si  tau( 503) = (  12.8281697  33.3532412  12.8281697  )
       504           Si  tau( 504) = (  12.8281697   2.5656339  23.0907054  )
       505           Si  tau( 505) = (  12.8281697   2.5656339  33.3532412  )
       506           Si  tau( 506) = (  12.8281697   2.5656339   2.5656339  )
       507           Si  tau( 507) = (  12.8281697   2.5656339  12.8281697  )
       508           Si  tau( 508) = (  12.8281697  12.8281697  23.0907054  )
       509           Si  tau( 509) = (  12.8281697  12.8281697  33.3532412  )
       510           Si  tau( 510) = (  12.8281697  12.8281697   2.5656339  )
       511           Si  tau( 511) = (  12.8281697  12.8281697  12.8281697  )
       512           Ge  tau( 512) = (   0.0000000   0.0000000   0.0000000  )

     number of k points=     1  gaussian smearing, width (Ry)=  0.0010
                       cart. coord. in units 2pi/alat
        k(    1) = (   0.0000000   0.0000000   0.0000000), wk =   2.0000000

     Dense  grid:  8583411 G-vectors     FFT dimensions: ( 324, 324, 324)

     Smooth grid:  1182051 G-vectors     FFT dimensions: ( 180, 180, 180)

     Estimated max dynamical RAM per process >     632.76 MB

     Estimated total dynamical RAM >     118.64 GB

     Initial potential from superposition of free atoms

     starting charge 2057.69115, renormalised to 2058.00000
     Starting wfcs are 2053 randomized atomic wfcs

     total cpu time spent up to now is       12.7 secs

     Self-consistent Calculation

     iteration #  1     ecut=    40.00 Ry     beta= 0.70
     Davidson diagonalization with overlap
     ethr =  1.00E-02,  avg # of iterations =  3.0

     Threshold (ethr) on eigenvalues was too large:
     Diagonalizing with lowered threshold

     Davidson diagonalization with overlap
     ethr =  7.24E-04,  avg # of iterations =  2.0

     total cpu time spent up to now is       44.3 secs

     total energy              =   -5133.18214102 Ry
     Harris-Foulkes estimate   =   -5138.34024204 Ry
     estimated scf accuracy    <      14.75161205 Ry

     iteration #  2     ecut=    40.00 Ry     beta= 0.70
     Davidson diagonalization with overlap
     ethr =  7.17E-04,  avg # of iterations =  1.0

     total cpu time spent up to now is       55.5 secs

     total energy              =   -5133.89030405 Ry
     Harris-Foulkes estimate   =   -5134.00246172 Ry
     estimated scf accuracy    <       0.49815686 Ry

     iteration #  3     ecut=    40.00 Ry     beta= 0.70
     Davidson diagonalization with overlap
     ethr =  2.42E-05,  avg # of iterations =  8.0

     total cpu time spent up to now is       84.2 secs

     total energy              =   -5133.95100209 Ry
     Harris-Foulkes estimate   =   -5134.01348588 Ry
     estimated scf accuracy    <       0.08783042 Ry

     iteration #  4     ecut=    40.00 Ry     beta= 0.70
     Davidson diagonalization with overlap
     ethr =  4.27E-06,  avg # of iterations =  6.0

     total cpu time spent up to now is      114.7 secs

     total energy              =   -5133.88764775 Ry
     Harris-Foulkes estimate   =   -5134.12959209 Ry
     estimated scf accuracy    <       1.23134798 Ry

     iteration #  5     ecut=    40.00 Ry     beta= 0.70
     Davidson diagonalization with overlap
     ethr =  4.27E-06,  avg # of iterations =  8.0

     total cpu time spent up to now is      144.4 secs

     total energy              =   -5133.99856969 Ry
     Harris-Foulkes estimate   =   -5134.01653402 Ry
     estimated scf accuracy    <       0.07179011 Ry

     iteration #  6     ecut=    40.00 Ry     beta= 0.70
     Davidson diagonalization with overlap
     ethr =  3.49E-06,  avg # of iterations =  9.0

     total cpu time spent up to now is      169.9 secs

     total energy              =   -5134.00667189 Ry
     Harris-Foulkes estimate   =   -5134.00865528 Ry
     estimated scf accuracy    <       0.00700056 Ry

     iteration #  7     ecut=    40.00 Ry     beta= 0.70
     Davidson diagonalization with overlap
     ethr =  3.40E-07,  avg # of iterations =  3.0

     total cpu time spent up to now is      185.9 secs

     total energy              =   -5134.00752170 Ry
     Harris-Foulkes estimate   =   -5134.00802854 Ry
     estimated scf accuracy    <       0.00166001 Ry

     iteration #  8     ecut=    40.00 Ry     beta= 0.70
     Davidson diagonalization with overlap
     ethr =  8.07E-08,  avg # of iterations =  2.0

     total cpu time spent up to now is      199.3 secs

     total energy              =   -5134.00771823 Ry
     Harris-Foulkes estimate   =   -5134.00783632 Ry
     estimated scf accuracy    <       0.00033489 Ry

     iteration #  9     ecut=    40.00 Ry     beta= 0.70
     Davidson diagonalization with overlap
     ethr =  1.63E-08,  avg # of iterations =  3.0

     total cpu time spent up to now is      215.4 secs

     total energy              =   -5134.00777239 Ry
     Harris-Foulkes estimate   =   -5134.00778971 Ry
     estimated scf accuracy    <       0.00004993 Ry

     iteration # 10     ecut=    40.00 Ry     beta= 0.70
     Davidson diagonalization with overlap
     ethr =  2.43E-09,  avg # of iterations =  3.0

     total cpu time spent up to now is      231.7 secs

     total energy              =   -5134.00778219 Ry
     Harris-Foulkes estimate   =   -5134.00778499 Ry
     estimated scf accuracy    <       0.00000598 Ry

     iteration # 11     ecut=    40.00 Ry     beta= 0.70
     Davidson diagonalization with overlap
     ethr =  2.90E-10,  avg # of iterations =  3.0

     total cpu time spent up to now is      250.5 secs

     total energy              =   -5134.00778315 Ry
     Harris-Foulkes estimate   =   -5134.00778570 Ry
     estimated scf accuracy    <       0.00000823 Ry

     iteration # 12     ecut=    40.00 Ry     beta= 0.70
     Davidson diagonalization with overlap
     ethr =  2.90E-10,  avg # of iterations =  3.0

     total cpu time spent up to now is      265.4 secs

     total energy              =   -5134.00778398 Ry
     Harris-Foulkes estimate   =   -5134.00778511 Ry
     estimated scf accuracy    <       0.00000522 Ry

     iteration # 13     ecut=    40.00 Ry     beta= 0.70
     Davidson diagonalization with overlap
     ethr =  2.54E-10,  avg # of iterations =  3.0

     total cpu time spent up to now is      279.1 secs

     total energy              =   -5134.00778451 Ry
     Harris-Foulkes estimate   =   -5134.00778463 Ry
     estimated scf accuracy    <       0.00000037 Ry

     iteration # 14     ecut=    40.00 Ry     beta= 0.70
     Davidson diagonalization with overlap
     ethr =  1.79E-11,  avg # of iterations =  3.0

     total cpu time spent up to now is      295.1 secs

     total energy              =   -5134.00778457 Ry
     Harris-Foulkes estimate   =   -5134.00778460 Ry
     estimated scf accuracy    <       0.00000007 Ry

     iteration # 15     ecut=    40.00 Ry     beta= 0.70
     Davidson diagonalization with overlap
     ethr =  3.61E-12,  avg # of iterations =  3.0

     total cpu time spent up to now is      311.6 secs

     total energy              =   -5134.00778458 Ry
     Harris-Foulkes estimate   =   -5134.00778461 Ry
     estimated scf accuracy    <       0.00000012 Ry

     iteration # 16     ecut=    40.00 Ry     beta= 0.70
     Davidson diagonalization with overlap
     ethr =  3.61E-12,  avg # of iterations =  3.0

     total cpu time spent up to now is      326.3 secs

     total energy              =   -5134.00778459 Ry
     Harris-Foulkes estimate   =   -5134.00778460 Ry
     estimated scf accuracy    <       0.00000002 Ry

     iteration # 17     ecut=    40.00 Ry     beta= 0.70
     Davidson diagonalization with overlap
     ethr =  1.20E-12,  avg # of iterations =  3.0

     total cpu time spent up to now is      340.5 secs

     total energy              =   -5134.00778459 Ry
     Harris-Foulkes estimate   =   -5134.00778459 Ry
     estimated scf accuracy    <          6.8E-09 Ry

     iteration # 18     ecut=    40.00 Ry     beta= 0.70
     Davidson diagonalization with overlap
     ethr =  3.30E-13,  avg # of iterations =  3.0

     total cpu time spent up to now is      355.3 secs

     total energy              =   -5134.00778459 Ry
     Harris-Foulkes estimate   =   -5134.00778459 Ry
     estimated scf accuracy    <          5.4E-09 Ry

     iteration # 19     ecut=    40.00 Ry     beta= 0.70
     Davidson diagonalization with overlap
     ethr =  2.61E-13,  avg # of iterations =  3.0

     total cpu time spent up to now is      370.3 secs

     total energy              =   -5134.00778459 Ry
     Harris-Foulkes estimate   =   -5134.00778459 Ry
     estimated scf accuracy    <          1.7E-09 Ry

     iteration # 20     ecut=    40.00 Ry     beta= 0.70
     Davidson diagonalization with overlap
     ethr =  1.00E-13,  avg # of iterations =  2.0

     total cpu time spent up to now is      383.1 secs

     total energy              =   -5134.00778459 Ry
     Harris-Foulkes estimate   =   -5134.00778459 Ry
     estimated scf accuracy    <          2.3E-10 Ry

     iteration # 21     ecut=    40.00 Ry     beta= 0.70
     Davidson diagonalization with overlap
     ethr =  1.00E-13,  avg # of iterations =  1.0

     total cpu time spent up to now is      394.2 secs

     End of self-consistent calculation

          k = 0.0000 0.0000 0.0000 (147954 PWs)   bands (ev):

   -18.2423 -18.2423 -18.2423 -18.2121 -18.2121  -5.9526  -5.7034  -5.6752
    -5.6752  -5.6752  -5.6751  -5.6751  -5.4557  -5.4080  -5.4080  -5.4080
    -5.4077  -5.4077  -5.4077  -5.4077  -5.4077  -5.4077  -5.4077  -5.4076
    -5.1774  -5.1484  -5.1484  -5.1484  -5.1482  -5.1481  -5.1481  -5.1481
    -4.8939  -4.8665  -4.8665  -4.8665  -4.8663  -4.8663  -4.7053  -4.6196
    -4.6196  -4.6196  -4.6186  -4.6186  -4.6186  -4.6186  -4.6186  -4.6185
    -4.6185  -4.6185  -4.6185  -4.6185  -4.6185  -4.6185  -4.6185  -4.6185
    -4.6185  -4.6185  -4.6185  -4.6184  -4.6184  -4.6184  -4.4475  -4.3918
    -4.3918  -4.3918  -4.3908  -4.3908  -4.3908  -4.3908  -4.3908  -4.3908
    -4.3908  -4.3908  -4.3908  -4.3907  -4.3907  -4.3907  -4.3907  -4.3907
    -4.3907  -4.3907  -4.3907  -4.3907  -4.3907  -4.3907  -3.9581  -3.9038
    -3.9038  -3.9038  -3.9032  -3.9032  -3.9032  -3.9032  -3.9032  -3.9032
    -3.9032  -3.9032  -3.8272  -3.7727  -3.7727  -3.7727  -3.7719  -3.7719
    -3.7719  -3.7719  -3.7719  -3.7719  -3.7719  -3.7719  -3.7719  -3.7719
    -3.7719  -3.7719  -3.7719  -3.7719  -3.7719  -3.7719  -3.7719  -3.7718
    -3.7718  -3.7718  -3.6235  -3.6114  -3.6114  -3.6114  -3.5674  -3.5547
    -3.5547  -3.5547  -3.5543  -3.5543  -3.4201  -3.3563  -3.3563  -3.3563
    -3.3549  -3.3549  -3.3549  -3.3549  -3.3549  -3.3549  -3.3549  -3.3549
    -3.3549  -3.3548  -3.3548  -3.3548  -3.3548  -3.3548  -3.3548  -3.3548
    -3.3548  -3.3548  -3.3548  -3.3548  -3.2678  -3.2294  -3.2294  -3.2294
    -3.2284  -3.2284  -3.2284  -3.2284  -3.2284  -3.2284  -3.2284  -3.2284
    -3.2284  -3.2283  -3.2283  -3.2283  -3.2283  -3.2283  -3.2283  -3.2283
    -3.2283  -3.2283  -3.2283  -3.2283  -3.1098  -3.0744  -3.0744  -3.0744
    -3.0739  -3.0739  -3.0739  -3.0739  -3.0739  -3.0738  -3.0738  -3.0738
    -3.0738  -3.0738  -3.0738  -3.0738  -3.0738  -3.0738  -3.0738  -3.0738
    -3.0738  -3.0738  -3.0738  -3.0737  -2.8642  -2.8296  -2.8296  -2.8296
    -2.8288  -2.8288  -2.8288  -2.8286  -2.8286  -2.8286  -2.8286  -2.8286
    -2.8286  -2.8286  -2.8286  -2.8286  -2.8286  -2.8286  -2.8286  -2.8286
    -2.8286  -2.8286  -2.8286  -2.8286  -2.2395  -2.2151  -2.2151  -2.2151
    -2.2148  -2.2148  -2.2148  -2.2148  -2.2148  -2.2148  -2.2147  -2.2147
    -1.8285  -1.8063  -1.8063  -1.8063  -1.8060  -1.8060  -1.7669  -1.7279
    -1.7279  -1.7279  -1.7267  -1.7267  -1.7267  -1.7266  -1.7266  -1.7266
    -1.7266  -1.7266  -1.7266  -1.7266  -1.7266  -1.7266  -1.7266  -1.7266
    -1.7266  -1.7266  -1.7266  -1.7266  -1.7266  -1.7266  -1.6531  -1.6395
    -1.6395  -1.6395  -1.6392  -1.6392  -1.6392  -1.6391  -1.6391  -1.6391
    -1.6390  -1.6390  -1.2381  -1.2185  -1.2185  -1.2185  -1.2179  -1.2179
    -1.2179  -1.2178  -1.2178  -1.2178  -1.2178  -1.2178  -0.9825  -0.9788
    -0.9788  -0.9788  -0.8219  -0.7902  -0.7902  -0.7902  -0.7877  -0.7877
    -0.7877  -0.7877  -0.7877  -0.7876  -0.7876  -0.7876  -0.7876  -0.7876
    -0.7876  -0.7876  -0.7876  -0.7876  -0.7876  -0.7875  -0.7875  -0.7875
    -0.7875  -0.7875  -0.6024  -0.5616  -0.5616  -0.5616  -0.5607  -0.5607
    -0.5607  -0.5606  -0.5606  -0.5606  -0.5605  -0.5605  -0.5605  -0.5605
    -0.5605  -0.5605  -0.5605  -0.5605  -0.5605  -0.5605  -0.5605  -0.5604
    -0.5604  -0.5604  -0.4241  -0.3855  -0.3855  -0.3855  -0.3820  -0.3819
    -0.3819  -0.3819  -0.3818  -0.3818  -0.3818  -0.3818  -0.3818  -0.3818
    -0.3818  -0.3818  -0.3818  -0.3818  -0.3818  -0.3818  -0.3818  -0.3816
    -0.3816  -0.3816  -0.3806  -0.3797  -0.3797  -0.3797  -0.3792  -0.3792
    -0.3792  -0.3791  -0.3791  -0.3791  -0.3791  -0.3791  -0.3791  -0.3791
    -0.3791  -0.3791  -0.3790  -0.3790  -0.3790  -0.3790  -0.3790  -0.3788
    -0.3788  -0.3788   0.0113   0.0433   0.0433   0.0433   0.0438   0.0438
     0.0438   0.0439   0.0439   0.0439   0.0439   0.0439   0.0439   0.0439
     0.0439   0.0439   0.0439   0.0439   0.0439   0.0440   0.0440   0.0441
     0.0441   0.0441   0.2539   0.2614   0.2614   0.2614   0.2616   0.2616
     0.5089   0.5230   0.5230   0.5230   0.5235   0.5235   0.5235   0.5236
     0.5236   0.5239   0.5239   0.5239   0.6931   0.7108   0.7108   0.7108
     0.7125   0.7127   0.7127   0.7127   0.7127   0.7127   0.7127   0.7127
     0.7127   0.7127   0.7127   0.7127   0.7127   0.7127   0.7127   0.7128
     0.7128   0.7135   0.7135   0.7135   1.6827   1.6827   1.6827   1.6831
     1.6842   1.6842   1.6842   1.6842   1.6842   1.6842   1.6843   1.6845
     1.6845   1.7114   1.7114   1.7114   1.7120   1.7120   1.7120   1.7120
     1.7120   1.7121   1.7121   1.7121   1.7121   1.7121   1.7121   1.7121
     1.7122   1.7122   1.7122   1.7122   1.7122   1.7134   1.7134   1.7134
     1.7563   1.7563   1.7563   1.7581   1.7589   1.7589   1.7589   1.7589
     1.7589   1.7589   1.7590   1.7590   1.7590   1.7590   1.7590   1.7590
     1.7590   1.7590   1.7591   1.7592   1.7592   1.7592   1.7595   1.7595
     2.0629   2.0685   2.0685   2.0685   2.0689   2.0696   2.0696   2.0696
     2.1361   2.1361   2.1361   2.1372   2.1372   2.1372   2.1373   2.1373
     2.1373   2.1373   2.1377   2.1377   2.2347   2.2350   2.2350   2.2350
     2.2361   2.2361   2.2361   2.2364   2.2364   2.2365   2.2365   2.2365
     2.4505   2.4558   2.4558   2.4558   2.4576   2.4576   2.4576   2.4577
     2.4577   2.4577   2.4577   2.4577   2.4577   2.4577   2.4577   2.4577
     2.4577   2.4577   2.4577   2.4583   2.4583   2.4583   2.4584   2.4584
     2.4756   2.4822   2.4822   2.4826   2.4826   2.4826   2.5369   2.5415
     2.5415   2.5415   2.5431   2.5431   2.5431   2.5433   2.5433   2.5433
     2.5433   2.5433   2.5433   2.5433   2.5433   2.5433   2.5433   2.5433
     2.5433   2.5438   2.5438   2.5440   2.5440   2.5440   2.5796   2.5796
     2.5796   2.5809   2.5809   2.5809   2.5811   2.5815   2.5815   2.5815
     2.5815   2.5815   2.5815   2.5815   2.5815   2.5816   2.5816   2.5816
     2.5816   2.5818   2.5818   2.5818   2.5821   2.5821   2.6324   2.6324
     2.6324   2.6327   2.6338   2.6338   2.6338   2.6342   2.6342   2.6342
     2.6343   2.6343   2.6343   2.6343   2.6343   2.6343   2.6343   2.6343
     2.6344   2.6347   2.6347   2.6350   2.6350   2.6350   3.1617   3.1617
     3.1617   3.1617   3.1617   3.1617   3.2432   3.2432   3.2432   3.2440
     3.2440   3.2440   3.2444   3.2444   3.2444   3.2444   3.2445   3.2446
     3.2446   3.2446   3.2446   3.2446   3.2446   3.2446   3.2446   3.2451
     3.2451   3.2451   3.2454   3.2454   3.2811   3.2829   3.2829   3.2829
     3.2842   3.2842   3.2842   3.2844   3.2844   3.2844   3.2844   3.2844
     3.2844   3.2844   3.2844   3.2844   3.2844   3.2844   3.2845   3.2847
     3.2847   3.2859   3.2859   3.2859   3.3050   3.3144   3.3144   3.3144
     3.3146   3.3146   3.3146   3.3147   3.3147   3.3161   3.3161   3.3161
     3.4068   3.4068   3.4068   3.4069   3.4069   3.4069   3.4074   3.4074
     3.4074   3.4078   3.4078   3.4078   3.4182   3.4182   3.4182   3.4185
     3.4187   3.4187   3.4187   3.4191   3.4191   3.4191   3.4192   3.4192
     3.4192   3.4192   3.4192   3.4192   3.4192   3.4192   3.4192   3.4198
     3.4198   3.4198   3.4203   3.4203   3.5311   3.5368   3.5368   3.5368
     3.5373   3.5373   3.5373   3.5376   3.5376   3.5376   3.5376   3.5376
     3.5376   3.5376   3.5377   3.5377   3.5377   3.5377   3.5377   3.5381
     3.5381   3.5393   3.5393   3.5393   3.5892   3.5892   3.5892   3.5895
     3.5895   3.5895   3.5897   3.5897   3.5897   3.5897   3.5899   3.5899
     3.8090   3.8090   3.8090   3.8093   3.8093   3.8093   3.8098   3.8098
     3.8098   3.8099   3.8099   3.8099   3.8099   3.8099   3.8099   3.8099
     3.8099   3.8099   3.8099   3.8102   3.8102   3.8106   3.8106   3.8106
     3.8487   3.8487   3.8487   3.8487   3.8487   3.8487   3.8491   3.8492
     3.8492   3.8492   3.8492   3.8492   3.8492   3.8493   3.8493   3.8493
     3.8493   3.8493   3.8493   3.8501   3.8501   3.8501   3.8503   3.8503
     4.1231   4.1231   4.1231   4.1233   4.1233   4.1233   4.1235   4.1235
     4.1235   4.1246   4.1246   4.1246   4.1586   4.1657   4.1657   4.1657
     4.1659   4.1659   4.1659   4.1660   4.1661   4.1661   4.1661   4.1661
     4.1661   4.1662   4.1662   4.1662   4.1662   4.1662   4.1662   4.1667
     4.1667   4.1684   4.1684   4.1684   4.3732   4.3737   4.3737   4.3737
     4.3741   4.3741   4.3741   4.3742   4.3742   4.3756   4.3756   4.3756
     4.4278   4.4278   4.4278   4.4279   4.4279   4.4279   4.4284   4.4284
     4.4284   4.4284   4.4284   4.4284   4.4284   4.4284   4.4284   4.4285
     4.4285   4.4285   4.4285   4.4287   4.4287   4.4307   4.4307   4.4307
     4.5821   4.5835   4.5835   4.5835   4.5836   4.5836   4.5836   4.5837
     4.5837   4.5837   4.5838   4.5838   4.5838   4.5838   4.5838   4.5839
     4.5839   4.5839   4.5839   4.5846   4.5846   4.5862   4.5862   4.5862
     4.6577   4.6626   4.6626   4.6637   4.6637   4.6637   4.6887   4.6887
     4.6887   4.6890   4.6890   4.6890   4.6890   4.6894   4.6894   4.6899
     4.6899   4.6899   4.7512   4.7512   4.7512   4.7519   4.7519   4.7519
     4.7519   4.7519   4.7519   4.7519   4.7519   4.7519   4.7519   4.7519
     4.7519   4.7519   4.7519   4.7519   4.7519   4.7525   4.7525   4.7540
     4.7540   4.7540   4.8194   4.8194   4.8194   4.8198   4.8198   4.8205
     4.8205   4.8205   5.2065   5.2065   5.2065   5.2066   5.2066   5.2066
     5.2067   5.2067   5.2067   5.2089   5.2089   5.2089   5.2563   5.2563
     5.2563   5.2564   5.2564   5.2564   5.2565   5.2565   5.2566   5.2566
     5.2566   5.2567   5.2567   5.2596   5.2596   5.2596   5.7250   5.7250
     5.7250   5.7250   5.7250   5.7250   5.7251   5.7252   5.7252   5.7278
     5.7278   5.7278   6.0173   6.0173   6.0173   6.5316   6.5355   6.5355
     6.5360   6.5360   6.5360   6.6219   6.6260   6.6260   6.6260   6.6262
     6.6262   7.0582   7.0616   7.0616   7.0625   7.0625   7.0625   7.1170
     7.1227   7.1227   7.1227   7.1229   7.1229   7.1229   7.1255   7.1255
     7.1255   7.1259   7.1259   7.4212   7.4377   7.4377   7.4377   7.4405
     7.4440   7.4440   7.4440   7.4442   7.4443   7.4443   7.4443   7.4444
     7.4444   7.4444   7.4444   7.4444   7.4444   7.4444   7.4444   7.4445
     7.4445   7.4445   7.4490   7.4490   7.4493   7.4493   7.4493   7.4549
     7.4580   7.4580   7.4580   7.4597   7.4597   7.8671   7.8822   7.8822
     7.8822   7.8826   7.8826   7.8826   7.8827   7.8827   7.8827   7.8827
     7.8827   7.8827   7.8828   7.8828   7.8828   7.8833   7.8833   7.8833
     7.8852   7.8852   7.8868   7.8868   7.8868   7.8936   7.8994   7.8994
     7.8994   7.8998   7.8998   7.8998   7.8999   7.8999   7.8999   7.8999
     7.8999   7.8999   7.8999   7.8999   7.8999   7.9004   7.9004   7.9004
     7.9061   7.9061   7.9066   7.9066   7.9066   7.9287   7.9367   7.9372
     7.9372   7.9372   7.9395   7.9395   7.9395   7.9659   7.9671   7.9671
     7.9688   7.9688   7.9688   8.1628   8.1789   8.1794   8.1794   8.1794
     8.1795   8.1795   8.1795   8.1796   8.1796   8.1796   8.1796   8.1796
     8.1797   8.1797   8.1797   8.1802   8.1802   8.1802   8.1834   8.1834
     8.1851   8.1851   8.1851   8.2634   8.2844   8.2844   8.2844   8.2846
     8.2846   8.2846   8.2847   8.2847   8.2847   8.2847   8.2847   8.2847
     8.2847   8.2847   8.2847   8.2851   8.2851   8.2851   8.2872   8.2872
     8.2906   8.2906   8.2906   8.3763   8.3827   8.3827   8.3827   8.3830
     8.3830   8.3830   8.3848   8.3848   8.3848   8.3854   8.3854   8.3905
     8.3935   8.3935   8.3936   8.3938   8.3938   8.3938   8.3939   8.3939
     8.3939   8.3940   8.3940   8.3940   8.3940   8.3940   8.3948   8.3948
     8.3949   8.3963   8.3963

     the Fermi energy is     6.3382 ev

!    total energy              =   -5134.00778459 Ry
     Harris-Foulkes estimate   =   -5134.00778459 Ry
     estimated scf accuracy    <          9.8E-11 Ry

     The total energy is the sum of the following terms:

     one-electron contribution =    1066.65430018 Ry
     hartree contribution      =     408.13349149 Ry
     xc contribution           =   -2259.91661055 Ry
     ewald contribution        =   -4348.87896572 Ry
     smearing contrib. (-TS)   =      -0.00000000 Ry

     convergence has been achieved in  21 iterations
 
     init_run     :     24.07s CPU     11.63s WALL (       1 calls)
     electrons    :   1020.74s CPU    381.48s WALL (       1 calls)

     Called by init_run:
     wfcinit      :     17.55s CPU      6.69s WALL (       1 calls)
     potinit      :      0.55s CPU      0.18s WALL (       1 calls)
     hinit0       :      1.03s CPU      0.57s WALL (       1 calls)

     Called by electrons:
     c_bands      :    868.26s CPU    319.17s WALL (      22 calls)
     sum_band     :    114.31s CPU     45.63s WALL (      22 calls)
     v_of_rho     :      1.57s CPU      0.58s WALL (      22 calls)
     newd         :     33.74s CPU     15.18s WALL (      22 calls)
     mix_rho      :      2.08s CPU      0.76s WALL (      22 calls)

     Called by c_bands:
     init_us_2    :      3.55s CPU      1.31s WALL (      45 calls)
     regterg      :    844.07s CPU    308.75s WALL (      22 calls)

     Called by sum_band:
     sum_band:bec :      2.58s CPU      0.88s WALL (      22 calls)
     addusdens    :     26.45s CPU     12.97s WALL (      22 calls)

     Called by *egterg:
     h_psi        :    367.91s CPU    135.23s WALL (     101 calls)
     s_psi        :     80.57s CPU     27.91s WALL (     101 calls)
     g_psi        :      0.24s CPU      0.10s WALL (      78 calls)
     rdiaghg      :    301.52s CPU    111.55s WALL (      99 calls)

     Called by h_psi:
     h_psi:pot    :    367.28s CPU    134.98s WALL (     101 calls)
     h_psi:calbec :    110.20s CPU     41.78s WALL (     101 calls)
     vloc_psi     :    178.87s CPU     64.37s WALL (     101 calls)
     add_vuspsi   :     78.16s CPU     28.83s WALL (     101 calls)

     General routines
     calbec       :    151.70s CPU     57.76s WALL (     123 calls)
     fft          :      7.03s CPU      2.69s WALL (     132 calls)
     ffts         :      0.73s CPU      0.26s WALL (      44 calls)
     fftw         :    161.64s CPU     64.27s WALL (   84128 calls)
     interpolate  :      1.55s CPU      0.57s WALL (      22 calls)
 
     Parallel routines
     fft_scatt_xy :      2.54s CPU      1.98s WALL (   84304 calls)
     fft_scatt_yz :    154.74s CPU     55.79s WALL (   84304 calls)
 
     PWSCF        : 17m25.77s CPU     6m34.25s WALL

 
   This run was terminated on:  15:58:41   4Nov2019            

=------------------------------------------------------------------------------=
   JOB DONE.
=------------------------------------------------------------------------------=
