
     Program PWSCF v.6.1 (svn rev. 13369) starts on 24Apr2017 at 14:37:16 

     This program is part of the open-source Quantum ESPRESSO suite
     for quantum simulation of materials; please cite
         "P. Giannozzi et al., J. Phys.:Condens. Matter 21 395502 (2009);
          URL http://www.quantum-espresso.org", 
     in publications or presentations arising from this work. More details at
     http://www.quantum-espresso.org/quote

     Parallel version (MPI), running on   256 processors
     K-points division:     npool     =      16
     R & G space division:  proc/nbgrp/npool/nimage =      16
     Reading input from pw.in

     Current dimensions of program PWSCF are:
     Max number of different atomic species (ntypx) = 10
     Max number of k-points (npk) =  40000
     Max angular momentum in pseudopotentials (lmaxx) =  3

     Subspace diagonalization in iterative solution of the eigenvalue problem:
     one sub-group per band group will be used
     custom distributed-memory algorithm (size of sub-group:  4*  4 procs)

 
     Parallelization info
     --------------------
     sticks:   dense  smooth     PW     G-vecs:    dense   smooth      PW
     Min         546     272     74                41388    14623    2105
     Max         547     273     75                41390    14626    2110
     Sum        8739    4367   1189               662223   233997   33707
 


     bravais-lattice index     =            0
     lattice parameter (alat)  =      21.3697  a.u.
     unit-cell volume          =    5740.4752 (a.u.)^3
     number of atoms/cell      =           48
     number of atomic types    =            2
     number of electrons       =       384.00
     number of Kohn-Sham states=          230
     kinetic-energy cutoff     =      45.0000  Ry
     charge density cutoff     =     360.0000  Ry
     convergence threshold     =      4.8E-07
     mixing beta               =       0.3500
     number of iterations used =            8  plain     mixing
     Exchange-correlation      = SLA  PW   PBE  PBE ( 1  4  3  4 0 0)

     celldm(1)=  21.369685  celldm(2)=   0.000000  celldm(3)=   0.000000
     celldm(4)=   0.000000  celldm(5)=   0.000000  celldm(6)=   0.000000

     crystal axes: (cart. coord. in units of alat)
               a(1) = (   1.000000   0.000000   0.000000 )  
               a(2) = (   0.000000   0.624362   0.236591 )  
               a(3) = (   0.000000   0.000000   0.942143 )  

     reciprocal axes: (cart. coord. in units 2 pi/alat)
               b(1) = (  1.000000  0.000000  0.000000 )  
               b(2) = (  0.000000  1.601634  0.000000 )  
               b(3) = (  0.000000 -0.402202  1.061410 )  


     PseudoPot. # 1 for Si read from file:
     ./pseudo/Si.pbe-n-rrkjus_psl.1.0.0.UPF
     MD5 check sum: d928fff27e2cf23ab01de9cd48acd62a
     Pseudo is Ultrasoft + core correction, Zval =  4.0
     Generated using "atomic" code by A. Dal Corso  v.5.1
     Using radial grid of 1141 points,  6 beta functions with: 
                l(1) =   0
                l(2) =   0
                l(3) =   1
                l(4) =   1
                l(5) =   2
                l(6) =   2
     Q(r) pseudized with 0 coefficients 


     PseudoPot. # 2 for Zr read from file:
     ./pseudo/Zr_pbe_v1.uspp.F.UPF
     MD5 check sum: 5db81b1e868ab7776c4564c113de050b
     Pseudo is Ultrasoft + core correction, Zval = 12.0
     Generated by new atomic code, or converted to UPF format
     Using radial grid of  887 points,  6 beta functions with: 
                l(1) =   0
                l(2) =   0
                l(3) =   1
                l(4) =   1
                l(5) =   2
                l(6) =   2
     Q(r) pseudized with  6 coefficients,  rinner =    1.200   1.200   1.200
                                                       1.200   1.200

     atomic species   valence    mass     pseudopotential
        Si             4.00    28.08550     Si( 1.00)
        Zr            12.00    91.22400     Zr( 1.00)

     Starting magnetic structure 
     atomic species   magnetization
        Si           0.000
        Zr           0.417

     No symmetry found


                                    s                        frac. trans.

      isym =  1     identity                                     

 cryst.   s( 1) = (     1          0          0      )
                  (     0          1          0      )
                  (     0          0          1      )

 cart.    s( 1) = (  1.0000000  0.0000000  0.0000000 )
                  (  0.0000000  1.0000000  0.0000000 )
                  (  0.0000000 -0.0000000  1.0000000 )


   Cartesian axes

     site n.     atom                  positions (alat units)
         1           Zr  tau(   1) = (   0.0836217   0.2683961   0.2310112  )
         2           Zr  tau(   2) = (   0.0765478   0.2661401   0.7108499  )
         3           Zr  tau(   3) = (   0.0789940   0.5734735   0.3556890  )
         4           Zr  tau(   4) = (   0.0824822   0.5720295   0.8277452  )
         5           Zr  tau(   5) = (   0.4103606   0.2646460   0.2355864  )
         6           Zr  tau(   6) = (   0.4151390   0.2722020   0.7133550  )
         7           Zr  tau(   7) = (   0.4145465   0.5792763   0.3629503  )
         8           Zr  tau(   8) = (   0.4188258   0.5827669   0.8328867  )
         9           Zr  tau(   9) = (   0.7449343   0.2621263   0.2364889  )
        10           Zr  tau(  10) = (   0.7464397   0.2684586   0.7148806  )
        11           Zr  tau(  11) = (   0.7548245   0.5741627   0.3544691  )
        12           Zr  tau(  12) = (   0.7481376   0.5730712   0.8305917  )
        13           Zr  tau(  13) = (   0.2523064   0.0397986   0.3552227  )
        14           Zr  tau(  14) = (   0.2481058   0.0476786   0.8289255  )
        15           Zr  tau(  15) = (   0.2450665   0.3577464   0.4646878  )
        16           Zr  tau(  16) = (   0.2474910   0.3568766   0.9342394  )
        17           Zr  tau(  17) = (   0.5770477   0.0432576   0.3539594  )
        18           Zr  tau(  18) = (   0.5805034   0.0390588   0.8208654  )
        19           Zr  tau(  19) = (   0.5804196   0.3635633   0.4719607  )
        20           Zr  tau(  20) = (   0.5808837   0.3626726   0.9366571  )
        21           Zr  tau(  21) = (   0.9157779   0.0510946   0.3474599  )
        22           Zr  tau(  22) = (   0.9102999   0.0453308   0.8194443  )
        23           Zr  tau(  23) = (   0.9228273   0.3579736   0.4663063  )
        24           Zr  tau(  24) = (   0.9157977   0.3506399   0.9422861  )
        25           Si  tau(  25) = (   0.2500972   0.1369384   0.1284103  )
        26           Si  tau(  26) = (   0.2455234   0.1286044   0.5902512  )
        27           Si  tau(  27) = (   0.2529895   0.4422805   0.2482897  )
        28           Si  tau(  28) = (   0.2523671   0.4374747   0.7109859  )
        29           Si  tau(  29) = (   0.5803197   0.1353867   0.1185974  )
        30           Si  tau(  30) = (   0.5764149   0.1305530   0.5937978  )
        31           Si  tau(  31) = (   0.5878628   0.4438546   0.2474914  )
        32           Si  tau(  32) = (   0.5849148   0.4502795   0.7108052  )
        33           Si  tau(  33) = (   0.9201882   0.1259734   0.1261945  )
        34           Si  tau(  34) = (   0.9101974   0.1306203   0.5975211  )
        35           Si  tau(  35) = (   0.9199541   0.4435434   0.2357981  )
        36           Si  tau(  36) = (   0.9163958   0.4483436   0.7077237  )
        37           Si  tau(  37) = (   0.0801570   0.1771082   0.4708905  )
        38           Si  tau(  38) = (   0.0777588   0.1762690   0.9373324  )
        39           Si  tau(  39) = (   0.0898579   0.4919397   0.5812904  )
        40           Si  tau(  40) = (   0.0778399   0.4904681   1.0587971  )
        41           Si  tau(  41) = (   0.4221489   0.1842440   0.4630491  )
        42           Si  tau(  42) = (   0.4117187   0.1783191   0.9412011  )
        43           Si  tau(  43) = (   0.4178742   0.4860726   0.5858796  )
        44           Si  tau(  44) = (   0.4236213   0.4937939   1.0557482  )
        45           Si  tau(  45) = (   0.7518223   0.1800321   0.4587907  )
        46           Si  tau(  46) = (   0.7452544   0.1758020   0.9344978  )
        47           Si  tau(  47) = (   0.7507262   0.4983489   0.5881712  )
        48           Si  tau(  48) = (   0.7559837   0.4908949   1.0582546  )

   Crystallographic axes

     site n.     atom                  positions (cryst. coord.)
         1           Zr  tau(   1) = (  0.0836217  0.4298722  0.1372481  )
         2           Zr  tau(   2) = (  0.0765478  0.4262589  0.6474612  )
         3           Zr  tau(   3) = (  0.0789940  0.9184946  0.1468796  )
         4           Zr  tau(   4) = (  0.0824822  0.9161817  0.6485057  )
         5           Zr  tau(   5) = (  0.4103606  0.4238660  0.1436126  )
         6           Zr  tau(   6) = (  0.4151390  0.4359679  0.6476820  )
         7           Zr  tau(   7) = (  0.4145465  0.9277884  0.1522529  )
         8           Zr  tau(   8) = (  0.4188258  0.9333792  0.6496443  )
         9           Zr  tau(   9) = (  0.7449343  0.4198303  0.1455840  )
        10           Zr  tau(  10) = (  0.7464397  0.4299723  0.6508069  )
        11           Zr  tau(  11) = (  0.7548245  0.9195984  0.1453075  )
        12           Zr  tau(  12) = (  0.7481376  0.9178501  0.6511080  )
        13           Zr  tau(  13) = (  0.2523064  0.0637428  0.3610299  )
        14           Zr  tau(  14) = (  0.2481058  0.0763636  0.8606536  )
        15           Zr  tau(  15) = (  0.2450665  0.5729788  0.3493379  )
        16           Zr  tau(  16) = (  0.2474910  0.5715856  0.8480747  )
        17           Zr  tau(  17) = (  0.5770477  0.0692829  0.3582979  )
        18           Zr  tau(  18) = (  0.5805034  0.0625578  0.8555654  )
        19           Zr  tau(  19) = (  0.5804196  0.5822953  0.3547179  )
        20           Zr  tau(  20) = (  0.5808837  0.5808687  0.8483097  )
        21           Zr  tau(  21) = (  0.9157779  0.0818348  0.3482472  )
        22           Zr  tau(  22) = (  0.9102999  0.0726033  0.8515344  )
        23           Zr  tau(  23) = (  0.9228273  0.5733427  0.3509645  )
        24           Zr  tau(  24) = (  0.9157977  0.5615968  0.8591239  )
        25           Si  tau(  25) = (  0.2500972  0.2193252  0.0812190  )
        26           Si  tau(  26) = (  0.2455234  0.2059771  0.5747738  )
        27           Si  tau(  27) = (  0.2529895  0.7083714  0.0856510  )
        28           Si  tau(  28) = (  0.2523671  0.7006742  0.5786944  )
        29           Si  tau(  29) = (  0.5803197  0.2168399  0.0714277  )
        30           Si  tau(  30) = (  0.5764149  0.2090981  0.5777543  )
        31           Si  tau(  31) = (  0.5878628  0.7108925  0.0841705  )
        32           Si  tau(  32) = (  0.5849148  0.7211829  0.5733525  )
        33           Si  tau(  33) = (  0.9201882  0.2017632  0.0832774  )
        34           Si  tau(  34) = (  0.9101974  0.2092058  0.5816793  )
        35           Si  tau(  35) = (  0.9199541  0.7103940  0.0718843  )
        36           Si  tau(  36) = (  0.9163958  0.7180822  0.5708604  )
        37           Si  tau(  37) = (  0.0801570  0.2836624  0.4285747  )
        38           Si  tau(  38) = (  0.0777588  0.2823184  0.9239984  )
        39           Si  tau(  39) = (  0.0898579  0.7879072  0.4191284  )
        40           Si  tau(  40) = (  0.0778399  0.7855502  0.9265507  )
        41           Si  tau(  41) = (  0.4221489  0.2950914  0.4173817  )
        42           Si  tau(  42) = (  0.4117187  0.2856019  0.9272802  )
        43           Si  tau(  43) = (  0.4178742  0.7785102  0.4263592  )
        44           Si  tau(  44) = (  0.4236213  0.7908769  0.9219770  )
        45           Si  tau(  45) = (  0.7518223  0.2883455  0.4145558  )
        46           Si  tau(  46) = (  0.7452544  0.2815704  0.9211776  )
        47           Si  tau(  47) = (  0.7507262  0.7981725  0.4238539  )
        48           Si  tau(  48) = (  0.7559837  0.7862337  0.9258033  )

     number of k points=   190  Marzari-Vanderbilt smearing, width (Ry)=  0.0200
                       cart. coord. in units 2pi/alat
        k(    1) = (   0.0000000   0.0000000   0.0000000), wk =   0.0026455
        k(    2) = (   0.0000000  -0.0574575   0.1516300), wk =   0.0052910
        k(    3) = (   0.0000000  -0.1149149   0.3032601), wk =   0.0052910
        k(    4) = (   0.0000000  -0.1723724   0.4548901), wk =   0.0052910
        k(    5) = (   0.0000000   0.1779593   0.0000000), wk =   0.0052910
        k(    6) = (   0.0000000   0.1205018   0.1516300), wk =   0.0052910
        k(    7) = (   0.0000000   0.0630444   0.3032601), wk =   0.0052910
        k(    8) = (   0.0000000   0.0055869   0.4548901), wk =   0.0052910
        k(    9) = (   0.0000000   0.3503317  -0.4548901), wk =   0.0052910
        k(   10) = (   0.0000000   0.2928742  -0.3032601), wk =   0.0052910
        k(   11) = (   0.0000000   0.2354168  -0.1516300), wk =   0.0052910
        k(   12) = (   0.0000000   0.3559186   0.0000000), wk =   0.0052910
        k(   13) = (   0.0000000   0.2984611   0.1516300), wk =   0.0052910
        k(   14) = (   0.0000000   0.2410037   0.3032601), wk =   0.0052910
        k(   15) = (   0.0000000   0.1835462   0.4548901), wk =   0.0052910
        k(   16) = (   0.0000000   0.5282910  -0.4548901), wk =   0.0052910
        k(   17) = (   0.0000000   0.4708335  -0.3032601), wk =   0.0052910
        k(   18) = (   0.0000000   0.4133761  -0.1516300), wk =   0.0052910
        k(   19) = (   0.0000000   0.5338779   0.0000000), wk =   0.0052910
        k(   20) = (   0.0000000   0.4764204   0.1516300), wk =   0.0052910
        k(   21) = (   0.0000000   0.4189630   0.3032601), wk =   0.0052910
        k(   22) = (   0.0000000   0.3615055   0.4548901), wk =   0.0052910
        k(   23) = (   0.0000000   0.7062503  -0.4548901), wk =   0.0052910
        k(   24) = (   0.0000000   0.6487928  -0.3032601), wk =   0.0052910
        k(   25) = (   0.0000000   0.5913354  -0.1516300), wk =   0.0052910
        k(   26) = (   0.0000000   0.7118372   0.0000000), wk =   0.0052910
        k(   27) = (   0.0000000   0.6543797   0.1516300), wk =   0.0052910
        k(   28) = (   0.0000000   0.5969223   0.3032601), wk =   0.0052910
        k(   29) = (   0.0000000   0.5394648   0.4548901), wk =   0.0052910
        k(   30) = (   0.0000000   0.8842096  -0.4548901), wk =   0.0052910
        k(   31) = (   0.0000000   0.8267521  -0.3032601), wk =   0.0052910
        k(   32) = (   0.0000000   0.7692947  -0.1516300), wk =   0.0052910
        k(   33) = (   0.1666667   0.0000000   0.0000000), wk =   0.0052910
        k(   34) = (   0.1666667  -0.0574575   0.1516300), wk =   0.0052910
        k(   35) = (   0.1666667  -0.1149149   0.3032601), wk =   0.0052910
        k(   36) = (   0.1666667  -0.1723724   0.4548901), wk =   0.0052910
        k(   37) = (   0.1666667   0.1779593   0.0000000), wk =   0.0052910
        k(   38) = (   0.1666667   0.1205018   0.1516300), wk =   0.0052910
        k(   39) = (   0.1666667   0.0630444   0.3032601), wk =   0.0052910
        k(   40) = (   0.1666667   0.0055869   0.4548901), wk =   0.0052910
        k(   41) = (   0.1666667   0.3503317  -0.4548901), wk =   0.0052910
        k(   42) = (   0.1666667   0.2928742  -0.3032601), wk =   0.0052910
        k(   43) = (   0.1666667   0.2354168  -0.1516300), wk =   0.0052910
        k(   44) = (   0.1666667   0.3559186   0.0000000), wk =   0.0052910
        k(   45) = (   0.1666667   0.2984611   0.1516300), wk =   0.0052910
        k(   46) = (   0.1666667   0.2410037   0.3032601), wk =   0.0052910
        k(   47) = (   0.1666667   0.1835462   0.4548901), wk =   0.0052910
        k(   48) = (   0.1666667   0.5282910  -0.4548901), wk =   0.0052910
        k(   49) = (   0.1666667   0.4708335  -0.3032601), wk =   0.0052910
        k(   50) = (   0.1666667   0.4133761  -0.1516300), wk =   0.0052910
        k(   51) = (   0.1666667   0.5338779   0.0000000), wk =   0.0052910
        k(   52) = (   0.1666667   0.4764204   0.1516300), wk =   0.0052910
        k(   53) = (   0.1666667   0.4189630   0.3032601), wk =   0.0052910
        k(   54) = (   0.1666667   0.3615055   0.4548901), wk =   0.0052910
        k(   55) = (   0.1666667   0.7062503  -0.4548901), wk =   0.0052910
        k(   56) = (   0.1666667   0.6487928  -0.3032601), wk =   0.0052910
        k(   57) = (   0.1666667   0.5913354  -0.1516300), wk =   0.0052910
        k(   58) = (   0.1666667   0.7118372   0.0000000), wk =   0.0052910
        k(   59) = (   0.1666667   0.6543797   0.1516300), wk =   0.0052910
        k(   60) = (   0.1666667   0.5969223   0.3032601), wk =   0.0052910
        k(   61) = (   0.1666667   0.5394648   0.4548901), wk =   0.0052910
        k(   62) = (   0.1666667   0.8842096  -0.4548901), wk =   0.0052910
        k(   63) = (   0.1666667   0.8267521  -0.3032601), wk =   0.0052910
        k(   64) = (   0.1666667   0.7692947  -0.1516300), wk =   0.0052910
        k(   65) = (   0.3333333   0.0000000   0.0000000), wk =   0.0052910
        k(   66) = (   0.3333333  -0.0574575   0.1516300), wk =   0.0052910
        k(   67) = (   0.3333333  -0.1149149   0.3032601), wk =   0.0052910
        k(   68) = (   0.3333333  -0.1723724   0.4548901), wk =   0.0052910
        k(   69) = (   0.3333333   0.1779593   0.0000000), wk =   0.0052910
        k(   70) = (   0.3333333   0.1205018   0.1516300), wk =   0.0052910
        k(   71) = (   0.3333333   0.0630444   0.3032601), wk =   0.0052910
        k(   72) = (   0.3333333   0.0055869   0.4548901), wk =   0.0052910
        k(   73) = (   0.3333333   0.3503317  -0.4548901), wk =   0.0052910
        k(   74) = (   0.3333333   0.2928742  -0.3032601), wk =   0.0052910
        k(   75) = (   0.3333333   0.2354168  -0.1516300), wk =   0.0052910
        k(   76) = (   0.3333333   0.3559186   0.0000000), wk =   0.0052910
        k(   77) = (   0.3333333   0.2984611   0.1516300), wk =   0.0052910
        k(   78) = (   0.3333333   0.2410037   0.3032601), wk =   0.0052910
        k(   79) = (   0.3333333   0.1835462   0.4548901), wk =   0.0052910
        k(   80) = (   0.3333333   0.5282910  -0.4548901), wk =   0.0052910
        k(   81) = (   0.3333333   0.4708335  -0.3032601), wk =   0.0052910
        k(   82) = (   0.3333333   0.4133761  -0.1516300), wk =   0.0052910
        k(   83) = (   0.3333333   0.5338779   0.0000000), wk =   0.0052910
        k(   84) = (   0.3333333   0.4764204   0.1516300), wk =   0.0052910
        k(   85) = (   0.3333333   0.4189630   0.3032601), wk =   0.0052910
        k(   86) = (   0.3333333   0.3615055   0.4548901), wk =   0.0052910
        k(   87) = (   0.3333333   0.7062503  -0.4548901), wk =   0.0052910
        k(   88) = (   0.3333333   0.6487928  -0.3032601), wk =   0.0052910
        k(   89) = (   0.3333333   0.5913354  -0.1516300), wk =   0.0052910
        k(   90) = (   0.3333333   0.7118372   0.0000000), wk =   0.0052910
        k(   91) = (   0.3333333   0.6543797   0.1516300), wk =   0.0052910
        k(   92) = (   0.3333333   0.5969223   0.3032601), wk =   0.0052910
        k(   93) = (   0.3333333   0.5394648   0.4548901), wk =   0.0052910
        k(   94) = (   0.3333333   0.8842096  -0.4548901), wk =   0.0052910
        k(   95) = (   0.3333333   0.8267521  -0.3032601), wk =   0.0052910
        k(   96) = (   0.3333333   0.7692947  -0.1516300), wk =   0.0052910
        k(   97) = (  -0.5000000   0.0000000   0.0000000), wk =   0.0026455
        k(   98) = (  -0.5000000  -0.0574575   0.1516300), wk =   0.0052910
        k(   99) = (  -0.5000000  -0.1149149   0.3032601), wk =   0.0052910
        k(  100) = (  -0.5000000  -0.1723724   0.4548901), wk =   0.0052910
        k(  101) = (  -0.5000000   0.1779593   0.0000000), wk =   0.0052910
        k(  102) = (  -0.5000000   0.1205018   0.1516300), wk =   0.0052910
        k(  103) = (  -0.5000000   0.0630444   0.3032601), wk =   0.0052910
        k(  104) = (  -0.5000000   0.0055869   0.4548901), wk =   0.0052910
        k(  105) = (  -0.5000000   0.3503317  -0.4548901), wk =   0.0052910
        k(  106) = (  -0.5000000   0.2928742  -0.3032601), wk =   0.0052910
        k(  107) = (  -0.5000000   0.2354168  -0.1516300), wk =   0.0052910
        k(  108) = (  -0.5000000   0.3559186   0.0000000), wk =   0.0052910
        k(  109) = (  -0.5000000   0.2984611   0.1516300), wk =   0.0052910
        k(  110) = (  -0.5000000   0.2410037   0.3032601), wk =   0.0052910
        k(  111) = (  -0.5000000   0.1835462   0.4548901), wk =   0.0052910
        k(  112) = (  -0.5000000   0.5282910  -0.4548901), wk =   0.0052910
        k(  113) = (  -0.5000000   0.4708335  -0.3032601), wk =   0.0052910
        k(  114) = (  -0.5000000   0.4133761  -0.1516300), wk =   0.0052910
        k(  115) = (  -0.5000000   0.5338779   0.0000000), wk =   0.0052910
        k(  116) = (  -0.5000000   0.4764204   0.1516300), wk =   0.0052910
        k(  117) = (  -0.5000000   0.4189630   0.3032601), wk =   0.0052910
        k(  118) = (  -0.5000000   0.3615055   0.4548901), wk =   0.0052910
        k(  119) = (  -0.5000000   0.7062503  -0.4548901), wk =   0.0052910
        k(  120) = (  -0.5000000   0.6487928  -0.3032601), wk =   0.0052910
        k(  121) = (  -0.5000000   0.5913354  -0.1516300), wk =   0.0052910
        k(  122) = (  -0.5000000   0.7118372   0.0000000), wk =   0.0052910
        k(  123) = (  -0.5000000   0.6543797   0.1516300), wk =   0.0052910
        k(  124) = (  -0.5000000   0.5969223   0.3032601), wk =   0.0052910
        k(  125) = (  -0.5000000   0.5394648   0.4548901), wk =   0.0052910
        k(  126) = (  -0.5000000   0.8842096  -0.4548901), wk =   0.0052910
        k(  127) = (  -0.5000000   0.8267521  -0.3032601), wk =   0.0052910
        k(  128) = (  -0.5000000   0.7692947  -0.1516300), wk =   0.0052910
        k(  129) = (   0.1666667   0.0574575  -0.1516300), wk =   0.0052910
        k(  130) = (   0.1666667   0.1149149  -0.3032601), wk =   0.0052910
        k(  131) = (   0.1666667   0.1723724  -0.4548901), wk =   0.0052910
        k(  132) = (   0.1666667  -0.1779593   0.0000000), wk =   0.0052910
        k(  133) = (   0.1666667  -0.1205018  -0.1516300), wk =   0.0052910
        k(  134) = (   0.1666667  -0.0630444  -0.3032601), wk =   0.0052910
        k(  135) = (   0.1666667  -0.0055869  -0.4548901), wk =   0.0052910
        k(  136) = (   0.1666667  -0.3503317   0.4548901), wk =   0.0052910
        k(  137) = (   0.1666667  -0.2928742   0.3032601), wk =   0.0052910
        k(  138) = (   0.1666667  -0.2354168   0.1516300), wk =   0.0052910
        k(  139) = (   0.1666667  -0.3559186   0.0000000), wk =   0.0052910
        k(  140) = (   0.1666667  -0.2984611  -0.1516300), wk =   0.0052910
        k(  141) = (   0.1666667  -0.2410037  -0.3032601), wk =   0.0052910
        k(  142) = (   0.1666667  -0.1835462  -0.4548901), wk =   0.0052910
        k(  143) = (   0.1666667  -0.5282910   0.4548901), wk =   0.0052910
        k(  144) = (   0.1666667  -0.4708335   0.3032601), wk =   0.0052910
        k(  145) = (   0.1666667  -0.4133761   0.1516300), wk =   0.0052910
        k(  146) = (   0.1666667  -0.5338779   0.0000000), wk =   0.0052910
        k(  147) = (   0.1666667  -0.4764204  -0.1516300), wk =   0.0052910
        k(  148) = (   0.1666667  -0.4189630  -0.3032601), wk =   0.0052910
        k(  149) = (   0.1666667  -0.3615055  -0.4548901), wk =   0.0052910
        k(  150) = (   0.1666667  -0.7062503   0.4548901), wk =   0.0052910
        k(  151) = (   0.1666667  -0.6487928   0.3032601), wk =   0.0052910
        k(  152) = (   0.1666667  -0.5913354   0.1516300), wk =   0.0052910
        k(  153) = (   0.1666667  -0.7118372   0.0000000), wk =   0.0052910
        k(  154) = (   0.1666667  -0.6543797  -0.1516300), wk =   0.0052910
        k(  155) = (   0.1666667  -0.5969223  -0.3032601), wk =   0.0052910
        k(  156) = (   0.1666667  -0.5394648  -0.4548901), wk =   0.0052910
        k(  157) = (   0.1666667  -0.8842096   0.4548901), wk =   0.0052910
        k(  158) = (   0.1666667  -0.8267521   0.3032601), wk =   0.0052910
        k(  159) = (   0.1666667  -0.7692947   0.1516300), wk =   0.0052910
        k(  160) = (   0.3333333   0.0574575  -0.1516300), wk =   0.0052910
        k(  161) = (   0.3333333   0.1149149  -0.3032601), wk =   0.0052910
        k(  162) = (   0.3333333   0.1723724  -0.4548901), wk =   0.0052910
        k(  163) = (   0.3333333  -0.1779593   0.0000000), wk =   0.0052910
        k(  164) = (   0.3333333  -0.1205018  -0.1516300), wk =   0.0052910
        k(  165) = (   0.3333333  -0.0630444  -0.3032601), wk =   0.0052910
        k(  166) = (   0.3333333  -0.0055869  -0.4548901), wk =   0.0052910
        k(  167) = (   0.3333333  -0.3503317   0.4548901), wk =   0.0052910
        k(  168) = (   0.3333333  -0.2928742   0.3032601), wk =   0.0052910
        k(  169) = (   0.3333333  -0.2354168   0.1516300), wk =   0.0052910
        k(  170) = (   0.3333333  -0.3559186   0.0000000), wk =   0.0052910
        k(  171) = (   0.3333333  -0.2984611  -0.1516300), wk =   0.0052910
        k(  172) = (   0.3333333  -0.2410037  -0.3032601), wk =   0.0052910
        k(  173) = (   0.3333333  -0.1835462  -0.4548901), wk =   0.0052910
        k(  174) = (   0.3333333  -0.5282910   0.4548901), wk =   0.0052910
        k(  175) = (   0.3333333  -0.4708335   0.3032601), wk =   0.0052910
        k(  176) = (   0.3333333  -0.4133761   0.1516300), wk =   0.0052910
        k(  177) = (   0.3333333  -0.5338779   0.0000000), wk =   0.0052910
        k(  178) = (   0.3333333  -0.4764204  -0.1516300), wk =   0.0052910
        k(  179) = (   0.3333333  -0.4189630  -0.3032601), wk =   0.0052910
        k(  180) = (   0.3333333  -0.3615055  -0.4548901), wk =   0.0052910
        k(  181) = (   0.3333333  -0.7062503   0.4548901), wk =   0.0052910
        k(  182) = (   0.3333333  -0.6487928   0.3032601), wk =   0.0052910
        k(  183) = (   0.3333333  -0.5913354   0.1516300), wk =   0.0052910
        k(  184) = (   0.3333333  -0.7118372   0.0000000), wk =   0.0052910
        k(  185) = (   0.3333333  -0.6543797  -0.1516300), wk =   0.0052910
        k(  186) = (   0.3333333  -0.5969223  -0.3032601), wk =   0.0052910
        k(  187) = (   0.3333333  -0.5394648  -0.4548901), wk =   0.0052910
        k(  188) = (   0.3333333  -0.8842096   0.4548901), wk =   0.0052910
        k(  189) = (   0.3333333  -0.8267521   0.3032601), wk =   0.0052910
        k(  190) = (   0.3333333  -0.7692947   0.1516300), wk =   0.0052910

                       cryst. coord.
        k(    1) = (   0.0000000   0.0000000   0.0000000), wk =   0.0026455
        k(    2) = (   0.0000000   0.0000000   0.1428571), wk =   0.0052910
        k(    3) = (   0.0000000   0.0000000   0.2857143), wk =   0.0052910
        k(    4) = (   0.0000000   0.0000000   0.4285714), wk =   0.0052910
        k(    5) = (   0.0000000   0.1111111   0.0000000), wk =   0.0052910
        k(    6) = (   0.0000000   0.1111111   0.1428571), wk =   0.0052910
        k(    7) = (   0.0000000   0.1111111   0.2857143), wk =   0.0052910
        k(    8) = (   0.0000000   0.1111111   0.4285714), wk =   0.0052910
        k(    9) = (   0.0000000   0.1111111  -0.4285714), wk =   0.0052910
        k(   10) = (   0.0000000   0.1111111  -0.2857143), wk =   0.0052910
        k(   11) = (   0.0000000   0.1111111  -0.1428571), wk =   0.0052910
        k(   12) = (   0.0000000   0.2222222   0.0000000), wk =   0.0052910
        k(   13) = (   0.0000000   0.2222222   0.1428571), wk =   0.0052910
        k(   14) = (   0.0000000   0.2222222   0.2857143), wk =   0.0052910
        k(   15) = (   0.0000000   0.2222222   0.4285714), wk =   0.0052910
        k(   16) = (   0.0000000   0.2222222  -0.4285714), wk =   0.0052910
        k(   17) = (   0.0000000   0.2222222  -0.2857143), wk =   0.0052910
        k(   18) = (   0.0000000   0.2222222  -0.1428571), wk =   0.0052910
        k(   19) = (   0.0000000   0.3333333   0.0000000), wk =   0.0052910
        k(   20) = (   0.0000000   0.3333333   0.1428571), wk =   0.0052910
        k(   21) = (   0.0000000   0.3333333   0.2857143), wk =   0.0052910
        k(   22) = (   0.0000000   0.3333333   0.4285714), wk =   0.0052910
        k(   23) = (   0.0000000   0.3333333  -0.4285714), wk =   0.0052910
        k(   24) = (   0.0000000   0.3333333  -0.2857143), wk =   0.0052910
        k(   25) = (   0.0000000   0.3333333  -0.1428571), wk =   0.0052910
        k(   26) = (   0.0000000   0.4444444   0.0000000), wk =   0.0052910
        k(   27) = (   0.0000000   0.4444444   0.1428571), wk =   0.0052910
        k(   28) = (   0.0000000   0.4444444   0.2857143), wk =   0.0052910
        k(   29) = (   0.0000000   0.4444444   0.4285714), wk =   0.0052910
        k(   30) = (   0.0000000   0.4444444  -0.4285714), wk =   0.0052910
        k(   31) = (   0.0000000   0.4444444  -0.2857143), wk =   0.0052910
        k(   32) = (   0.0000000   0.4444444  -0.1428571), wk =   0.0052910
        k(   33) = (   0.1666667   0.0000000   0.0000000), wk =   0.0052910
        k(   34) = (   0.1666667   0.0000000   0.1428571), wk =   0.0052910
        k(   35) = (   0.1666667   0.0000000   0.2857143), wk =   0.0052910
        k(   36) = (   0.1666667   0.0000000   0.4285714), wk =   0.0052910
        k(   37) = (   0.1666667   0.1111111   0.0000000), wk =   0.0052910
        k(   38) = (   0.1666667   0.1111111   0.1428571), wk =   0.0052910
        k(   39) = (   0.1666667   0.1111111   0.2857143), wk =   0.0052910
        k(   40) = (   0.1666667   0.1111111   0.4285714), wk =   0.0052910
        k(   41) = (   0.1666667   0.1111111  -0.4285714), wk =   0.0052910
        k(   42) = (   0.1666667   0.1111111  -0.2857143), wk =   0.0052910
        k(   43) = (   0.1666667   0.1111111  -0.1428571), wk =   0.0052910
        k(   44) = (   0.1666667   0.2222222   0.0000000), wk =   0.0052910
        k(   45) = (   0.1666667   0.2222222   0.1428571), wk =   0.0052910
        k(   46) = (   0.1666667   0.2222222   0.2857143), wk =   0.0052910
        k(   47) = (   0.1666667   0.2222222   0.4285714), wk =   0.0052910
        k(   48) = (   0.1666667   0.2222222  -0.4285714), wk =   0.0052910
        k(   49) = (   0.1666667   0.2222222  -0.2857143), wk =   0.0052910
        k(   50) = (   0.1666667   0.2222222  -0.1428571), wk =   0.0052910
        k(   51) = (   0.1666667   0.3333333   0.0000000), wk =   0.0052910
        k(   52) = (   0.1666667   0.3333333   0.1428571), wk =   0.0052910
        k(   53) = (   0.1666667   0.3333333   0.2857143), wk =   0.0052910
        k(   54) = (   0.1666667   0.3333333   0.4285714), wk =   0.0052910
        k(   55) = (   0.1666667   0.3333333  -0.4285714), wk =   0.0052910
        k(   56) = (   0.1666667   0.3333333  -0.2857143), wk =   0.0052910
        k(   57) = (   0.1666667   0.3333333  -0.1428571), wk =   0.0052910
        k(   58) = (   0.1666667   0.4444444   0.0000000), wk =   0.0052910
        k(   59) = (   0.1666667   0.4444444   0.1428571), wk =   0.0052910
        k(   60) = (   0.1666667   0.4444444   0.2857143), wk =   0.0052910
        k(   61) = (   0.1666667   0.4444444   0.4285714), wk =   0.0052910
        k(   62) = (   0.1666667   0.4444444  -0.4285714), wk =   0.0052910
        k(   63) = (   0.1666667   0.4444444  -0.2857143), wk =   0.0052910
        k(   64) = (   0.1666667   0.4444444  -0.1428571), wk =   0.0052910
        k(   65) = (   0.3333333   0.0000000   0.0000000), wk =   0.0052910
        k(   66) = (   0.3333333   0.0000000   0.1428571), wk =   0.0052910
        k(   67) = (   0.3333333   0.0000000   0.2857143), wk =   0.0052910
        k(   68) = (   0.3333333   0.0000000   0.4285714), wk =   0.0052910
        k(   69) = (   0.3333333   0.1111111   0.0000000), wk =   0.0052910
        k(   70) = (   0.3333333   0.1111111   0.1428571), wk =   0.0052910
        k(   71) = (   0.3333333   0.1111111   0.2857143), wk =   0.0052910
        k(   72) = (   0.3333333   0.1111111   0.4285714), wk =   0.0052910
        k(   73) = (   0.3333333   0.1111111  -0.4285714), wk =   0.0052910
        k(   74) = (   0.3333333   0.1111111  -0.2857143), wk =   0.0052910
        k(   75) = (   0.3333333   0.1111111  -0.1428571), wk =   0.0052910
        k(   76) = (   0.3333333   0.2222222   0.0000000), wk =   0.0052910
        k(   77) = (   0.3333333   0.2222222   0.1428571), wk =   0.0052910
        k(   78) = (   0.3333333   0.2222222   0.2857143), wk =   0.0052910
        k(   79) = (   0.3333333   0.2222222   0.4285714), wk =   0.0052910
        k(   80) = (   0.3333333   0.2222222  -0.4285714), wk =   0.0052910
        k(   81) = (   0.3333333   0.2222222  -0.2857143), wk =   0.0052910
        k(   82) = (   0.3333333   0.2222222  -0.1428571), wk =   0.0052910
        k(   83) = (   0.3333333   0.3333333   0.0000000), wk =   0.0052910
        k(   84) = (   0.3333333   0.3333333   0.1428571), wk =   0.0052910
        k(   85) = (   0.3333333   0.3333333   0.2857143), wk =   0.0052910
        k(   86) = (   0.3333333   0.3333333   0.4285714), wk =   0.0052910
        k(   87) = (   0.3333333   0.3333333  -0.4285714), wk =   0.0052910
        k(   88) = (   0.3333333   0.3333333  -0.2857143), wk =   0.0052910
        k(   89) = (   0.3333333   0.3333333  -0.1428571), wk =   0.0052910
        k(   90) = (   0.3333333   0.4444444   0.0000000), wk =   0.0052910
        k(   91) = (   0.3333333   0.4444444   0.1428571), wk =   0.0052910
        k(   92) = (   0.3333333   0.4444444   0.2857143), wk =   0.0052910
        k(   93) = (   0.3333333   0.4444444   0.4285714), wk =   0.0052910
        k(   94) = (   0.3333333   0.4444444  -0.4285714), wk =   0.0052910
        k(   95) = (   0.3333333   0.4444444  -0.2857143), wk =   0.0052910
        k(   96) = (   0.3333333   0.4444444  -0.1428571), wk =   0.0052910
        k(   97) = (  -0.5000000   0.0000000   0.0000000), wk =   0.0026455
        k(   98) = (  -0.5000000   0.0000000   0.1428571), wk =   0.0052910
        k(   99) = (  -0.5000000   0.0000000   0.2857143), wk =   0.0052910
        k(  100) = (  -0.5000000   0.0000000   0.4285714), wk =   0.0052910
        k(  101) = (  -0.5000000   0.1111111   0.0000000), wk =   0.0052910
        k(  102) = (  -0.5000000   0.1111111   0.1428571), wk =   0.0052910
        k(  103) = (  -0.5000000   0.1111111   0.2857143), wk =   0.0052910
        k(  104) = (  -0.5000000   0.1111111   0.4285714), wk =   0.0052910
        k(  105) = (  -0.5000000   0.1111111  -0.4285714), wk =   0.0052910
        k(  106) = (  -0.5000000   0.1111111  -0.2857143), wk =   0.0052910
        k(  107) = (  -0.5000000   0.1111111  -0.1428571), wk =   0.0052910
        k(  108) = (  -0.5000000   0.2222222   0.0000000), wk =   0.0052910
        k(  109) = (  -0.5000000   0.2222222   0.1428571), wk =   0.0052910
        k(  110) = (  -0.5000000   0.2222222   0.2857143), wk =   0.0052910
        k(  111) = (  -0.5000000   0.2222222   0.4285714), wk =   0.0052910
        k(  112) = (  -0.5000000   0.2222222  -0.4285714), wk =   0.0052910
        k(  113) = (  -0.5000000   0.2222222  -0.2857143), wk =   0.0052910
        k(  114) = (  -0.5000000   0.2222222  -0.1428571), wk =   0.0052910
        k(  115) = (  -0.5000000   0.3333333   0.0000000), wk =   0.0052910
        k(  116) = (  -0.5000000   0.3333333   0.1428571), wk =   0.0052910
        k(  117) = (  -0.5000000   0.3333333   0.2857143), wk =   0.0052910
        k(  118) = (  -0.5000000   0.3333333   0.4285714), wk =   0.0052910
        k(  119) = (  -0.5000000   0.3333333  -0.4285714), wk =   0.0052910
        k(  120) = (  -0.5000000   0.3333333  -0.2857143), wk =   0.0052910
        k(  121) = (  -0.5000000   0.3333333  -0.1428571), wk =   0.0052910
        k(  122) = (  -0.5000000   0.4444444   0.0000000), wk =   0.0052910
        k(  123) = (  -0.5000000   0.4444444   0.1428571), wk =   0.0052910
        k(  124) = (  -0.5000000   0.4444444   0.2857143), wk =   0.0052910
        k(  125) = (  -0.5000000   0.4444444   0.4285714), wk =   0.0052910
        k(  126) = (  -0.5000000   0.4444444  -0.4285714), wk =   0.0052910
        k(  127) = (  -0.5000000   0.4444444  -0.2857143), wk =   0.0052910
        k(  128) = (  -0.5000000   0.4444444  -0.1428571), wk =   0.0052910
        k(  129) = (   0.1666667  -0.0000000  -0.1428571), wk =   0.0052910
        k(  130) = (   0.1666667  -0.0000000  -0.2857143), wk =   0.0052910
        k(  131) = (   0.1666667  -0.0000000  -0.4285714), wk =   0.0052910
        k(  132) = (   0.1666667  -0.1111111   0.0000000), wk =   0.0052910
        k(  133) = (   0.1666667  -0.1111111  -0.1428571), wk =   0.0052910
        k(  134) = (   0.1666667  -0.1111111  -0.2857143), wk =   0.0052910
        k(  135) = (   0.1666667  -0.1111111  -0.4285714), wk =   0.0052910
        k(  136) = (   0.1666667  -0.1111111   0.4285714), wk =   0.0052910
        k(  137) = (   0.1666667  -0.1111111   0.2857143), wk =   0.0052910
        k(  138) = (   0.1666667  -0.1111111   0.1428571), wk =   0.0052910
        k(  139) = (   0.1666667  -0.2222222   0.0000000), wk =   0.0052910
        k(  140) = (   0.1666667  -0.2222222  -0.1428571), wk =   0.0052910
        k(  141) = (   0.1666667  -0.2222222  -0.2857143), wk =   0.0052910
        k(  142) = (   0.1666667  -0.2222222  -0.4285714), wk =   0.0052910
        k(  143) = (   0.1666667  -0.2222222   0.4285714), wk =   0.0052910
        k(  144) = (   0.1666667  -0.2222222   0.2857143), wk =   0.0052910
        k(  145) = (   0.1666667  -0.2222222   0.1428571), wk =   0.0052910
        k(  146) = (   0.1666667  -0.3333333   0.0000000), wk =   0.0052910
        k(  147) = (   0.1666667  -0.3333333  -0.1428571), wk =   0.0052910
        k(  148) = (   0.1666667  -0.3333333  -0.2857143), wk =   0.0052910
        k(  149) = (   0.1666667  -0.3333333  -0.4285714), wk =   0.0052910
        k(  150) = (   0.1666667  -0.3333333   0.4285714), wk =   0.0052910
        k(  151) = (   0.1666667  -0.3333333   0.2857143), wk =   0.0052910
        k(  152) = (   0.1666667  -0.3333333   0.1428571), wk =   0.0052910
        k(  153) = (   0.1666667  -0.4444444   0.0000000), wk =   0.0052910
        k(  154) = (   0.1666667  -0.4444444  -0.1428571), wk =   0.0052910
        k(  155) = (   0.1666667  -0.4444444  -0.2857143), wk =   0.0052910
        k(  156) = (   0.1666667  -0.4444444  -0.4285714), wk =   0.0052910
        k(  157) = (   0.1666667  -0.4444444   0.4285714), wk =   0.0052910
        k(  158) = (   0.1666667  -0.4444444   0.2857143), wk =   0.0052910
        k(  159) = (   0.1666667  -0.4444444   0.1428571), wk =   0.0052910
        k(  160) = (   0.3333333  -0.0000000  -0.1428571), wk =   0.0052910
        k(  161) = (   0.3333333  -0.0000000  -0.2857143), wk =   0.0052910
        k(  162) = (   0.3333333  -0.0000000  -0.4285714), wk =   0.0052910
        k(  163) = (   0.3333333  -0.1111111   0.0000000), wk =   0.0052910
        k(  164) = (   0.3333333  -0.1111111  -0.1428571), wk =   0.0052910
        k(  165) = (   0.3333333  -0.1111111  -0.2857143), wk =   0.0052910
        k(  166) = (   0.3333333  -0.1111111  -0.4285714), wk =   0.0052910
        k(  167) = (   0.3333333  -0.1111111   0.4285714), wk =   0.0052910
        k(  168) = (   0.3333333  -0.1111111   0.2857143), wk =   0.0052910
        k(  169) = (   0.3333333  -0.1111111   0.1428571), wk =   0.0052910
        k(  170) = (   0.3333333  -0.2222222   0.0000000), wk =   0.0052910
        k(  171) = (   0.3333333  -0.2222222  -0.1428571), wk =   0.0052910
        k(  172) = (   0.3333333  -0.2222222  -0.2857143), wk =   0.0052910
        k(  173) = (   0.3333333  -0.2222222  -0.4285714), wk =   0.0052910
        k(  174) = (   0.3333333  -0.2222222   0.4285714), wk =   0.0052910
        k(  175) = (   0.3333333  -0.2222222   0.2857143), wk =   0.0052910
        k(  176) = (   0.3333333  -0.2222222   0.1428571), wk =   0.0052910
        k(  177) = (   0.3333333  -0.3333333   0.0000000), wk =   0.0052910
        k(  178) = (   0.3333333  -0.3333333  -0.1428571), wk =   0.0052910
        k(  179) = (   0.3333333  -0.3333333  -0.2857143), wk =   0.0052910
        k(  180) = (   0.3333333  -0.3333333  -0.4285714), wk =   0.0052910
        k(  181) = (   0.3333333  -0.3333333   0.4285714), wk =   0.0052910
        k(  182) = (   0.3333333  -0.3333333   0.2857143), wk =   0.0052910
        k(  183) = (   0.3333333  -0.3333333   0.1428571), wk =   0.0052910
        k(  184) = (   0.3333333  -0.4444444   0.0000000), wk =   0.0052910
        k(  185) = (   0.3333333  -0.4444444  -0.1428571), wk =   0.0052910
        k(  186) = (   0.3333333  -0.4444444  -0.2857143), wk =   0.0052910
        k(  187) = (   0.3333333  -0.4444444  -0.4285714), wk =   0.0052910
        k(  188) = (   0.3333333  -0.4444444   0.4285714), wk =   0.0052910
        k(  189) = (   0.3333333  -0.4444444   0.2857143), wk =   0.0052910
        k(  190) = (   0.3333333  -0.4444444   0.1428571), wk =   0.0052910

     Dense  grid:   662223 G-vectors     FFT dimensions: ( 135,  90, 125)

     Smooth grid:   233997 G-vectors     FFT dimensions: (  96,  64,  90)

     Estimated max dynamical RAM per process >     280.47MB

     Estimated total allocated dynamical RAM >   71801.10MB
     Generating pointlists ...
     new r_m :   0.0839 (alat units)  1.7920 (a.u.) for type    1
     new r_m :   0.0953 (alat units)  2.0368 (a.u.) for type    2

     Initial potential from superposition of free atoms
     Check: negative starting charge=(component1):   -1.029624
     Check: negative starting charge=(component2):   -0.419736

     starting charge  383.93500, renormalised to  384.00000

     negative rho (up, down):  1.030E+00 4.198E-01
     Starting wfc are  408 randomized atomic wfcs

     total cpu time spent up to now is       75.5 secs

     per-process dynamical memory:   264.9 Mb

     Self-consistent Calculation

     iteration #  1     ecut=    45.00 Ry     beta=0.35
     Davidson diagonalization with overlap
     ethr =  1.00E-02,  avg # of iterations =  2.5

     negative rho (up, down):  9.273E-01 5.258E-01

     total cpu time spent up to now is      202.6 secs

     total energy              =   -2653.60517386 Ry
     Harris-Foulkes estimate   =   -2650.69771725 Ry
     estimated scf accuracy    <       4.34540564 Ry

     total magnetization       =    19.46 Bohr mag/cell
     absolute magnetization    =    23.62 Bohr mag/cell

     iteration #  2     ecut=    45.00 Ry     beta=0.35
     Davidson diagonalization with overlap
     ethr =  1.13E-03,  avg # of iterations =  2.0

     negative rho (up, down):  8.376E-01 6.246E-01

     total cpu time spent up to now is      309.7 secs

     total energy              =   -2655.59330012 Ry
     Harris-Foulkes estimate   =   -2653.88577634 Ry
     estimated scf accuracy    <       2.08717450 Ry

     total magnetization       =    13.48 Bohr mag/cell
     absolute magnetization    =    17.87 Bohr mag/cell

     iteration #  3     ecut=    45.00 Ry     beta=0.35
     Davidson diagonalization with overlap
     ethr =  5.44E-04,  avg # of iterations =  5.5

     negative rho (up, down):  7.819E-01 6.863E-01

     total cpu time spent up to now is      507.5 secs

     total energy              =   -2655.84332049 Ry
     Harris-Foulkes estimate   =   -2656.40883202 Ry
     estimated scf accuracy    <       8.14008006 Ry

     total magnetization       =     9.06 Bohr mag/cell
     absolute magnetization    =    12.16 Bohr mag/cell

     iteration #  4     ecut=    45.00 Ry     beta=0.35
     Davidson diagonalization with overlap
     ethr =  5.44E-04,  avg # of iterations =  5.4

     negative rho (up, down):  7.568E-01 7.146E-01

     total cpu time spent up to now is      704.9 secs

     total energy              =   -2656.67293208 Ry
     Harris-Foulkes estimate   =   -2656.73210526 Ry
     estimated scf accuracy    <       1.50553601 Ry

     total magnetization       =     4.14 Bohr mag/cell
     absolute magnetization    =     7.08 Bohr mag/cell

     iteration #  5     ecut=    45.00 Ry     beta=0.35
     Davidson diagonalization with overlap
     ethr =  3.92E-04,  avg # of iterations =  2.9

     negative rho (up, down):  7.397E-01 7.348E-01

     total cpu time spent up to now is      837.8 secs

     total energy              =   -2656.87009710 Ry
     Harris-Foulkes estimate   =   -2656.85735613 Ry
     estimated scf accuracy    <       0.33739699 Ry

     total magnetization       =     2.52 Bohr mag/cell
     absolute magnetization    =     5.04 Bohr mag/cell

     iteration #  6     ecut=    45.00 Ry     beta=0.35
     Davidson diagonalization with overlap
     ethr =  8.79E-05,  avg # of iterations =  6.1

     negative rho (up, down):  7.344E-01 7.411E-01

     total cpu time spent up to now is     1043.0 secs

     total energy              =   -2656.90678757 Ry
     Harris-Foulkes estimate   =   -2656.94958900 Ry
     estimated scf accuracy    <       0.35906500 Ry

     total magnetization       =     1.32 Bohr mag/cell
     absolute magnetization    =     3.15 Bohr mag/cell

     iteration #  7     ecut=    45.00 Ry     beta=0.35
     Davidson diagonalization with overlap
     ethr =  8.79E-05,  avg # of iterations =  3.4

     negative rho (up, down):  7.327E-01 7.434E-01

     total cpu time spent up to now is     1184.5 secs

     total energy              =   -2656.94337275 Ry
     Harris-Foulkes estimate   =   -2656.94768981 Ry
     estimated scf accuracy    <       0.06556542 Ry

     total magnetization       =     0.91 Bohr mag/cell
     absolute magnetization    =     2.43 Bohr mag/cell

     iteration #  8     ecut=    45.00 Ry     beta=0.35
     Davidson diagonalization with overlap
     ethr =  1.71E-05,  avg # of iterations =  6.7

     negative rho (up, down):  7.329E-01 7.434E-01

     total cpu time spent up to now is     1405.3 secs

     total energy              =   -2656.95352436 Ry
     Harris-Foulkes estimate   =   -2656.95278092 Ry
     estimated scf accuracy    <       0.01536376 Ry

     total magnetization       =     0.66 Bohr mag/cell
     absolute magnetization    =     1.92 Bohr mag/cell

     iteration #  9     ecut=    45.00 Ry     beta=0.35
     Davidson diagonalization with overlap
     ethr =  4.00E-06,  avg # of iterations =  8.4

     negative rho (up, down):  7.334E-01 7.429E-01

     total cpu time spent up to now is     1675.3 secs

     total energy              =   -2656.95705322 Ry
     Harris-Foulkes estimate   =   -2656.95653133 Ry
     estimated scf accuracy    <       0.01276204 Ry

     total magnetization       =     0.53 Bohr mag/cell
     absolute magnetization    =     1.59 Bohr mag/cell

     iteration # 10     ecut=    45.00 Ry     beta=0.35
     Davidson diagonalization with overlap
     ethr =  3.32E-06,  avg # of iterations =  2.3

     negative rho (up, down):  7.346E-01 7.419E-01

     total cpu time spent up to now is     1797.5 secs

     total energy              =   -2656.96112575 Ry
     Harris-Foulkes estimate   =   -2656.95823890 Ry
     estimated scf accuracy    <       0.00138303 Ry

     total magnetization       =     0.45 Bohr mag/cell
     absolute magnetization    =     1.37 Bohr mag/cell

     iteration # 11     ecut=    45.00 Ry     beta=0.35
     Davidson diagonalization with overlap
     ethr =  3.60E-07,  avg # of iterations =  3.7

     negative rho (up, down):  7.357E-01 7.409E-01

     total cpu time spent up to now is     1974.2 secs

     total energy              =   -2656.96362290 Ry
     Harris-Foulkes estimate   =   -2656.96166922 Ry
     estimated scf accuracy    <       0.00104454 Ry

     total magnetization       =     0.32 Bohr mag/cell
     absolute magnetization    =     0.98 Bohr mag/cell

     iteration # 12     ecut=    45.00 Ry     beta=0.35
     Davidson diagonalization with overlap
     ethr =  2.72E-07,  avg # of iterations =  3.1

     negative rho (up, down):  7.359E-01 7.407E-01

     total cpu time spent up to now is     2136.2 secs

     total energy              =   -2656.96439617 Ry
     Harris-Foulkes estimate   =   -2656.96408502 Ry
     estimated scf accuracy    <       0.00044775 Ry

     total magnetization       =     0.17 Bohr mag/cell
     absolute magnetization    =     0.57 Bohr mag/cell

     iteration # 13     ecut=    45.00 Ry     beta=0.35
     Davidson diagonalization with overlap
     ethr =  1.17E-07,  avg # of iterations =  3.1

     negative rho (up, down):  7.368E-01 7.398E-01

     total cpu time spent up to now is     2282.4 secs

     total energy              =   -2656.96488646 Ry
     Harris-Foulkes estimate   =   -2656.96456172 Ry
     estimated scf accuracy    <       0.00103173 Ry

     total magnetization       =     0.12 Bohr mag/cell
     absolute magnetization    =     0.44 Bohr mag/cell

     iteration # 14     ecut=    45.00 Ry     beta=0.35
     Davidson diagonalization with overlap
     ethr =  1.17E-07,  avg # of iterations =  3.4

     negative rho (up, down):  7.372E-01 7.394E-01

     total cpu time spent up to now is     2430.8 secs

     total energy              =   -2656.96515600 Ry
     Harris-Foulkes estimate   =   -2656.96506005 Ry
     estimated scf accuracy    <       0.00019302 Ry

     total magnetization       =     0.06 Bohr mag/cell
     absolute magnetization    =     0.25 Bohr mag/cell

     iteration # 15     ecut=    45.00 Ry     beta=0.35
     Davidson diagonalization with overlap
     ethr =  5.03E-08,  avg # of iterations =  3.0

     negative rho (up, down):  7.376E-01 7.390E-01

     total cpu time spent up to now is     2565.7 secs

     total energy              =   -2656.96524881 Ry
     Harris-Foulkes estimate   =   -2656.96520144 Ry
     estimated scf accuracy    <       0.00006490 Ry

     total magnetization       =     0.03 Bohr mag/cell
     absolute magnetization    =     0.15 Bohr mag/cell

     iteration # 16     ecut=    45.00 Ry     beta=0.35
     Davidson diagonalization with overlap
     ethr =  1.69E-08,  avg # of iterations =  3.0

     negative rho (up, down):  7.379E-01 7.387E-01

     total cpu time spent up to now is     2701.0 secs

     total energy              =   -2656.96528291 Ry
     Harris-Foulkes estimate   =   -2656.96526315 Ry
     estimated scf accuracy    <       0.00002547 Ry

     total magnetization       =     0.01 Bohr mag/cell
     absolute magnetization    =     0.09 Bohr mag/cell

     iteration # 17     ecut=    45.00 Ry     beta=0.35
     Davidson diagonalization with overlap
     ethr =  6.63E-09,  avg # of iterations =  3.1

     negative rho (up, down):  7.381E-01 7.385E-01

     total cpu time spent up to now is     2847.6 secs

     total energy              =   -2656.96529557 Ry
     Harris-Foulkes estimate   =   -2656.96529352 Ry
     estimated scf accuracy    <       0.00005166 Ry

     total magnetization       =     0.01 Bohr mag/cell
     absolute magnetization    =     0.05 Bohr mag/cell

     iteration # 18     ecut=    45.00 Ry     beta=0.35
     Davidson diagonalization with overlap
     ethr =  6.63E-09,  avg # of iterations =  3.0

     negative rho (up, down):  7.382E-01 7.384E-01

     total cpu time spent up to now is     2978.8 secs

     total energy              =   -2656.96530315 Ry
     Harris-Foulkes estimate   =   -2656.96530267 Ry
     estimated scf accuracy    <       0.00000996 Ry

     total magnetization       =    -0.00 Bohr mag/cell
     absolute magnetization    =     0.03 Bohr mag/cell

     iteration # 19     ecut=    45.00 Ry     beta=0.35
     Davidson diagonalization with overlap
     ethr =  2.59E-09,  avg # of iterations =  3.0

     negative rho (up, down):  7.382E-01 7.383E-01

     total cpu time spent up to now is     3101.7 secs

     total energy              =   -2656.96530591 Ry
     Harris-Foulkes estimate   =   -2656.96530476 Ry
     estimated scf accuracy    <       0.00000258 Ry

     total magnetization       =    -0.00 Bohr mag/cell
     absolute magnetization    =     0.02 Bohr mag/cell

     iteration # 20     ecut=    45.00 Ry     beta=0.35
     Davidson diagonalization with overlap
     ethr =  6.71E-10,  avg # of iterations =  3.0

     negative rho (up, down):  7.383E-01 7.383E-01
 
     Magnetic moment per site:
     atom:    1    charge:    9.1155    magn:   -0.0000    constr:    0.0000
     atom:    2    charge:    9.0898    magn:   -0.0000    constr:    0.0000
     atom:    3    charge:    9.1121    magn:   -0.0001    constr:    0.0000
     atom:    4    charge:    9.0842    magn:    0.0001    constr:    0.0000
     atom:    5    charge:    9.1157    magn:   -0.0000    constr:    0.0000
     atom:    6    charge:    9.0983    magn:    0.0001    constr:    0.0000
     atom:    7    charge:    9.0930    magn:    0.0001    constr:    0.0000
     atom:    8    charge:    9.1031    magn:   -0.0000    constr:    0.0000
     atom:    9    charge:    9.0977    magn:   -0.0001    constr:    0.0000
     atom:   10    charge:    9.0793    magn:    0.0000    constr:    0.0000
     atom:   11    charge:    9.0973    magn:    0.0001    constr:    0.0000
     atom:   12    charge:    9.1018    magn:    0.0000    constr:    0.0000
     atom:   13    charge:    9.0949    magn:    0.0000    constr:    0.0000
     atom:   14    charge:    9.0805    magn:    0.0002    constr:    0.0000
     atom:   15    charge:    9.1108    magn:   -0.0001    constr:    0.0000
     atom:   16    charge:    9.0806    magn:    0.0000    constr:    0.0000
     atom:   17    charge:    9.1078    magn:    0.0000    constr:    0.0000
     atom:   18    charge:    9.1073    magn:   -0.0000    constr:    0.0000
     atom:   19    charge:    9.1084    magn:   -0.0001    constr:    0.0000
     atom:   20    charge:    9.0896    magn:    0.0001    constr:    0.0000
     atom:   21    charge:    9.1116    magn:   -0.0001    constr:    0.0000
     atom:   22    charge:    9.1170    magn:   -0.0002    constr:    0.0000
     atom:   23    charge:    9.0832    magn:    0.0002    constr:    0.0000
     atom:   24    charge:    9.1017    magn:    0.0001    constr:    0.0000
     atom:   25    charge:    1.7479    magn:   -0.0000    constr:    0.0000
     atom:   26    charge:    1.7157    magn:   -0.0001    constr:    0.0000
     atom:   27    charge:    1.7341    magn:   -0.0000    constr:    0.0000
     atom:   28    charge:    1.7535    magn:   -0.0000    constr:    0.0000
     atom:   29    charge:    1.7360    magn:   -0.0000    constr:    0.0000
     atom:   30    charge:    1.7304    magn:   -0.0000    constr:    0.0000
     atom:   31    charge:    1.7289    magn:   -0.0000    constr:    0.0000
     atom:   32    charge:    1.7676    magn:   -0.0000    constr:    0.0000
     atom:   33    charge:    1.7518    magn:   -0.0000    constr:    0.0000
     atom:   34    charge:    1.7265    magn:   -0.0000    constr:    0.0000
     atom:   35    charge:    1.7813    magn:   -0.0000    constr:    0.0000
     atom:   36    charge:    1.7354    magn:   -0.0000    constr:    0.0000
     atom:   37    charge:    1.7352    magn:   -0.0000    constr:    0.0000
     atom:   38    charge:    1.7493    magn:   -0.0000    constr:    0.0000
     atom:   39    charge:    1.7444    magn:   -0.0000    constr:    0.0000
     atom:   40    charge:    1.7457    magn:   -0.0001    constr:    0.0000
     atom:   41    charge:    1.7364    magn:   -0.0000    constr:    0.0000
     atom:   42    charge:    1.7496    magn:   -0.0001    constr:    0.0000
     atom:   43    charge:    1.7671    magn:   -0.0000    constr:    0.0000
     atom:   44    charge:    1.7330    magn:   -0.0000    constr:    0.0000
     atom:   45    charge:    1.7109    magn:   -0.0000    constr:    0.0000
     atom:   46    charge:    1.7357    magn:   -0.0000    constr:    0.0000
     atom:   47    charge:    1.7392    magn:   -0.0000    constr:    0.0000
     atom:   48    charge:    1.7553    magn:   -0.0000    constr:    0.0000

     total cpu time spent up to now is     3226.2 secs

     End of self-consistent calculation

 ------ SPIN UP ------------


          k = 0.0000 0.0000 0.0000 ( 29235 PWs)   bands (ev):

   -35.1743 -35.1656 -35.1601 -35.1494 -35.1472 -35.1427 -35.1329 -35.1270
   -35.1233 -35.1209 -35.1109 -35.1062 -35.1013 -35.0979 -35.0947 -35.0933
   -35.0883 -35.0850 -35.0773 -35.0743 -35.0683 -35.0673 -35.0575 -35.0548
   -13.4382 -13.4313 -13.4278 -13.4236 -13.4196 -13.4166 -13.4143 -13.4131
   -13.4085 -13.4056 -13.3980 -13.3959 -13.3941 -13.3647 -13.3621 -13.3579
   -13.3559 -13.3301 -13.3253 -13.3171 -13.3134 -13.2999 -13.2903 -13.2884
   -13.2789 -13.2736 -13.2581 -13.2430 -13.2301 -13.2269 -13.2193 -13.2167
   -13.2055 -13.2017 -13.1993 -13.1968 -13.1903 -13.1845 -13.1745 -13.1714
   -13.1668 -13.1631 -13.1584 -13.1552 -13.1525 -13.1425 -13.1388 -13.1325
   -13.1288 -13.1209 -13.1185 -13.1118 -13.1091 -13.1061 -13.1023 -13.0999
   -13.0909 -13.0903 -13.0836 -13.0830 -13.0808 -13.0739 -13.0685 -13.0649
   -13.0542 -13.0506 -13.0423 -13.0379 -13.0274 -13.0251 -13.0188 -12.9999
     2.1986   2.7580   3.2342   3.3708   3.4593   3.5020   3.7962   3.8951
     4.0691   4.1348   4.2227   4.2598   5.9860   6.1204   6.1554   6.1802
     6.2411   6.3125   6.3292   6.4905   6.5828   6.7609   7.5568   7.5798
     7.7383   7.7842   8.8576   8.8743   8.8812   8.9777   9.1694   9.1986
     9.2115   9.2496   9.8063   9.8242   9.9169   9.9377   9.9836   9.9901
    10.0303  10.0428  10.0693  10.0796  10.1001  10.1077  10.1284  10.1569
    10.2437  10.4486  10.7197  10.7751  10.7795  10.8132  10.8284  10.8494
    10.8841  10.9129  10.9178  11.0142  11.0847  11.1214  11.1330  11.1484
    11.2940  11.3268  11.3762  11.4687  11.5652  11.6663  11.6820  11.7119
    11.7482  11.8217  11.8936  11.9726  11.9888  12.0105  12.0247  12.1538
    12.1762  12.1833  12.2082  12.3188  12.3441  12.4878  12.5037  12.5115
    12.5293  12.8865  13.1020  13.1267  13.3811  13.4317  13.5537  13.5862
    14.0231  14.0481  14.0801  14.0944  14.1354  14.4144  14.5060  14.5951
    14.6156  14.6333  14.7232  14.7640  14.8425  14.8807  15.0959  15.1082
    15.1833  15.2425  15.2703  15.3114  15.3712  15.4473  15.4698  15.5174
    15.5382  15.5652  15.5758  15.6078  15.6179  15.6358  15.6692  15.6777
    15.8310  15.8566  15.8596  15.9079  15.9461  15.9899

     occupation numbers 
     1.0000   1.0000   1.0000   1.0000   1.0000   1.0000   1.0000   1.0000
     1.0000   1.0000   1.0000   1.0000   1.0000   1.0000   1.0000   1.0000
     1.0000   1.0000   1.0000   1.0000   1.0000   1.0000   1.0000   1.0000
     1.0000   1.0000   1.0000   1.0000   1.0000   1.0000   1.0000   1.0000
     1.0000   1.0000   1.0000   1.0000   1.0000   1.0000   1.0000   1.0000
     1.0000   1.0000   1.0000   1.0000   1.0000   1.0000   1.0000   1.0000
     1.0000   1.0000   1.0000   1.0000   1.0000   1.0000   1.0000   1.0000
     1.0000   1.0000   1.0000   1.0000   1.0000   1.0000   1.0000   1.0000
     1.0000   1.0000   1.0000   1.0000   1.0000   1.0000   1.0000   1.0000
     1.0000   1.0000   1.0000   1.0000   1.0000   1.0000   1.0000   1.0000
     1.0000   1.0000   1.0000   1.0000   1.0000   1.0000   1.0000   1.0000
     1.0000   1.0000   1.0000   1.0000   1.0000   1.0000   1.0000   1.0000
     1.0000   1.0000   1.0000   1.0000   1.0000   1.0000   1.0000   1.0000
     1.0000   1.0000   1.0000   1.0000   1.0000   1.0000   1.0000   1.0000
     1.0000   1.0000   1.0000   1.0000   1.0000   1.0000   1.0000   1.0000
     1.0000   1.0000   1.0000   1.0000   1.0000   1.0000   1.0000   1.0000
     1.0000   1.0000   1.0000   1.0000   1.0000   1.0000   1.0000   1.0000
     1.0000   1.0000   1.0000   1.0000   1.0000   1.0000   1.0000   1.0000
     1.0000   1.0000   1.0000   1.0000   1.0000   1.0000   1.0000   1.0000
     1.0000   1.0000   1.0000   1.0000   1.0000   1.0000   1.0000   1.0000
     1.0000   1.0000   1.0000   1.0000   1.0000   1.0000   1.0000   1.0000
     1.0000   1.0000   1.0000   1.0000   1.0000   1.0000   1.0000   1.0000
     1.0000   1.0000   1.0000   1.0000   1.0000   1.0000   1.0000   1.0000
     1.0000   1.0066   1.0559   1.0643   0.9550   0.8526   0.5308   0.4436
     0.0032   0.0021   0.0012   0.0009   0.0004   0.0000   0.0000   0.0000
     0.0000   0.0000   0.0000   0.0000   0.0000   0.0000   0.0000   0.0000
     0.0000   0.0000   0.0000   0.0000   0.0000   0.0000   0.0000   0.0000
     0.0000   0.0000   0.0000   0.0000   0.0000   0.0000   0.0000   0.0000
     0.0000   0.0000   0.0000   0.0000   0.0000   0.0000

          k = 0.0000-0.0575 0.1516 ( 29264 PWs)   bands (ev):

   -35.1741 -35.1658 -35.1602 -35.1495 -35.1471 -35.1427 -35.1328 -35.1271
   -35.1234 -35.1210 -35.1109 -35.1061 -35.1016 -35.0978 -35.0947 -35.0930
   -35.0881 -35.0851 -35.0773 -35.0742 -35.0684 -35.0671 -35.0575 -35.0549
   -13.4420 -13.4384 -13.4315 -13.4283 -13.4178 -13.4147 -13.4123 -13.4083
   -13.4032 -13.3977 -13.3916 -13.3880 -13.3859 -13.3675 -13.3644 -13.3618
   -13.3582 -13.3499 -13.3458 -13.3052 -13.2991 -13.2949 -13.2904 -13.2861
   -13.2783 -13.2720 -13.2660 -13.2552 -13.2440 -13.2205 -13.2176 -13.2092
   -13.2047 -13.2004 -13.1979 -13.1919 -13.1897 -13.1828 -13.1744 -13.1716
   -13.1683 -13.1632 -13.1607 -13.1570 -13.1545 -13.1425 -13.1374 -13.1328
   -13.1281 -13.1199 -13.1162 -13.1115 -13.1078 -13.1062 -13.0994 -13.0972
   -13.0908 -13.0892 -13.0839 -13.0814 -13.0785 -13.0757 -13.0686 -13.0665
   -13.0609 -13.0561 -13.0423 -13.0343 -13.0276 -13.0236 -13.0185 -13.0014
     2.2222   2.7252   3.2418   3.3776   3.4671   3.5115   3.7733   3.8734
     4.0681   4.1344   4.2206   4.2588   6.0242   6.1295   6.1663   6.1888
     6.2469   6.3203   6.3379   6.4741   6.5674   6.7308   7.5982   7.6215
     7.7872   7.8345   8.7438   8.7621   8.8082   8.9013   9.1214   9.1534
     9.1639   9.2046   9.8395   9.8513   9.8690   9.8877   9.9072   9.9243
    10.0819  10.1062  10.1335  10.1480  10.1665  10.1797  10.2165  10.2213
    10.2556  10.4317  10.7312  10.7815  10.7891  10.8287  10.8366  10.8669
    10.8793  10.9121  10.9386  11.0152  11.1155  11.1485  11.1547  11.1853
    11.3023  11.3147  11.3516  11.4523  11.5208  11.6075  11.6831  11.7088
    11.7606  11.8110  11.9801  12.0056  12.0236  12.0418  12.0568  12.1456
    12.1905  12.2334  12.2531  12.3450  12.3687  12.4783  12.4962  12.5051
    12.5211  12.8279  13.1304  13.1544  13.2618  13.2978  13.6230  13.6621
    13.9989  14.0147  14.0660  14.1061  14.1509  14.4453  14.5054  14.5475
    14.6069  14.6385  14.6690  14.7224  14.8154  14.8672  15.0299  15.1567
    15.1794  15.2273  15.2528  15.2683  15.3350  15.3588  15.3801  15.3883
    15.4082  15.4683  15.5641  15.6315  15.6572  15.6885  15.7142  15.7414
    15.7796  15.8022  15.8281  15.8381  15.9049  15.9614

     occupation numbers 
     1.0000   1.0000   1.0000   1.0000   1.0000   1.0000   1.0000   1.0000
     1.0000   1.0000   1.0000   1.0000   1.0000   1.0000   1.0000   1.0000
     1.0000   1.0000   1.0000   1.0000   1.0000   1.0000   1.0000   1.0000
     1.0000   1.0000   1.0000   1.0000   1.0000   1.0000   1.0000   1.0000
     1.0000   1.0000   1.0000   1.0000   1.0000   1.0000   1.0000   1.0000
     1.0000   1.0000   1.0000   1.0000   1.0000   1.0000   1.0000   1.0000
     1.0000   1.0000   1.0000   1.0000   1.0000   1.0000   1.0000   1.0000
     1.0000   1.0000   1.0000   1.0000   1.0000   1.0000   1.0000   1.0000
     1.0000   1.0000   1.0000   1.0000   1.0000   1.0000   1.0000   1.0000
     1.0000   1.0000   1.0000   1.0000   1.0000   1.0000   1.0000   1.0000
     1.0000   1.0000   1.0000   1.0000   1.0000   1.0000   1.0000   1.0000
     1.0000   1.0000   1.0000   1.0000   1.0000   1.0000   1.0000   1.0000
     1.0000   1.0000   1.0000   1.0000   1.0000   1.0000   1.0000   1.0000
     1.0000   1.0000   1.0000   1.0000   1.0000   1.0000   1.0000   1.0000
     1.0000   1.0000   1.0000   1.0000   1.0000   1.0000   1.0000   1.0000
     1.0000   1.0000   1.0000   1.0000   1.0000   1.0000   1.0000   1.0000
     1.0000   1.0000   1.0000   1.0000   1.0000   1.0000   1.0000   1.0000
     1.0000   1.0000   1.0000   1.0000   1.0000   1.0000   1.0000   1.0000
     1.0000   1.0000   1.0000   1.0000   1.0000   1.0000   1.0000   1.0000
     1.0000   1.0000   1.0000   1.0000   1.0000   1.0000   1.0000   1.0000
     1.0000   1.0000   1.0000   1.0000   1.0000   1.0000   1.0000   1.0000
     1.0000   1.0000   1.0000   1.0000   1.0000   1.0000   1.0000   1.0000
     1.0000   1.0000   1.0000   1.0000   1.0000   1.0000   1.0000   1.0000
     1.0000   1.0028   1.0656   1.0729   1.0761   1.0570   0.3516   0.2652
     0.0048   0.0037   0.0015   0.0007   0.0003   0.0000   0.0000   0.0000
     0.0000   0.0000   0.0000   0.0000   0.0000   0.0000   0.0000   0.0000
     0.0000   0.0000   0.0000   0.0000   0.0000   0.0000   0.0000   0.0000
     0.0000   0.0000   0.0000   0.0000   0.0000   0.0000   0.0000   0.0000
     0.0000   0.0000   0.0000   0.0000   0.0000   0.0000

          k = 0.0000-0.1149 0.3033 ( 29242 PWs)   bands (ev):

   -35.1734 -35.1663 -35.1603 -35.1498 -35.1469 -35.1429 -35.1325 -35.1272
   -35.1240 -35.1211 -35.1109 -35.1059 -35.1021 -35.0975 -35.0948 -35.0923
   -35.0877 -35.0852 -35.0774 -35.0740 -35.0687 -35.0669 -35.0577 -35.0552
   -13.4501 -13.4495 -13.4317 -13.4279 -13.4124 -13.4096 -13.4064 -13.4041
   -13.3935 -13.3905 -13.3839 -13.3805 -13.3770 -13.3721 -13.3698 -13.3683
   -13.3626 -13.3592 -13.3528 -13.3098 -13.2996 -13.2975 -13.2918 -13.2869
   -13.2826 -13.2775 -13.2676 -13.2497 -13.2484 -13.2206 -13.2179 -13.2139
   -13.2054 -13.1997 -13.1971 -13.1911 -13.1874 -13.1797 -13.1724 -13.1702
   -13.1654 -13.1625 -13.1587 -13.1561 -13.1488 -13.1383 -13.1366 -13.1313
   -13.1269 -13.1182 -13.1141 -13.1112 -13.1085 -13.1060 -13.1003 -13.0972
   -13.0934 -13.0906 -13.0857 -13.0827 -13.0793 -13.0761 -13.0694 -13.0659
   -13.0640 -13.0516 -13.0438 -13.0374 -13.0283 -13.0219 -13.0193 -13.0034
     2.2902   2.6369   3.2592   3.3896   3.4964   3.5420   3.7124   3.8163
     4.0660   4.1334   4.2162   4.2569   6.1114   6.1582   6.1971   6.2137
     6.2600   6.3419   6.3625   6.4303   6.5253   6.6457   7.7179   7.7417
     7.9266   7.9772   8.4929   8.5102   8.6272   8.7103   9.0260   9.0594
     9.0691   9.1126   9.7869   9.7957   9.8160   9.8409   9.9658  10.0099
    10.0755  10.1116  10.1881  10.2598  10.2841  10.3154  10.3346  10.3441
    10.3888  10.4206  10.7548  10.7662  10.7851  10.8189  10.8581  10.8801
    10.8849  10.9299  10.9784  11.0118  11.1593  11.2177  11.2327  11.2747
    11.2996  11.3527  11.3730  11.4117  11.4376  11.4827  11.6512  11.7078
    11.8036  11.8214  12.0495  12.0763  12.1017  12.1127  12.1589  12.1809
    12.2208  12.3491  12.3683  12.4063  12.4229  12.4492  12.4780  12.4862
    12.4914  12.6961  13.0121  13.0364  13.2188  13.2578  13.8048  13.8523
    13.8805  13.8927  14.1069  14.1714  14.1963  14.2151  14.2930  14.4499
    14.5527  14.5832  14.7615  14.7976  14.8930  14.9052  14.9454  14.9721
    14.9984  15.0398  15.0683  15.1512  15.1778  15.2178  15.2603  15.3861
    15.4751  15.5034  15.5375  15.6007  15.6336  15.6602  15.6656  15.7389
    15.7780  15.7999  15.8491  15.8574  15.9188  15.9487

     occupation numbers 
     1.0000   1.0000   1.0000   1.0000   1.0000   1.0000   1.0000   1.0000
     1.0000   1.0000   1.0000   1.0000   1.0000   1.0000   1.0000   1.0000
     1.0000   1.0000   1.0000   1.0000   1.0000   1.0000   1.0000   1.0000
     1.0000   1.0000   1.0000   1.0000   1.0000   1.0000   1.0000   1.0000
     1.0000   1.0000   1.0000   1.0000   1.0000   1.0000   1.0000   1.0000
     1.0000   1.0000   1.0000   1.0000   1.0000   1.0000   1.0000   1.0000
     1.0000   1.0000   1.0000   1.0000   1.0000   1.0000   1.0000   1.0000
     1.0000   1.0000   1.0000   1.0000   1.0000   1.0000   1.0000   1.0000
     1.0000   1.0000   1.0000   1.0000   1.0000   1.0000   1.0000   1.0000
     1.0000   1.0000   1.0000   1.0000   1.0000   1.0000   1.0000   1.0000
     1.0000   1.0000   1.0000   1.0000   1.0000   1.0000   1.0000   1.0000
     1.0000   1.0000   1.0000   1.0000   1.0000   1.0000   1.0000   1.0000
     1.0000   1.0000   1.0000   1.0000   1.0000   1.0000   1.0000   1.0000
     1.0000   1.0000   1.0000   1.0000   1.0000   1.0000   1.0000   1.0000
     1.0000   1.0000   1.0000   1.0000   1.0000   1.0000   1.0000   1.0000
     1.0000   1.0000   1.0000   1.0000   1.0000   1.0000   1.0000   1.0000
     1.0000   1.0000   1.0000   1.0000   1.0000   1.0000   1.0000   1.0000
     1.0000   1.0000   1.0000   1.0000   1.0000   1.0000   1.0000   1.0000
     1.0000   1.0000   1.0000   1.0000   1.0000   1.0000   1.0000   1.0000
     1.0000   1.0000   1.0000   1.0000   1.0000   1.0000   1.0000   1.0000
     1.0000   1.0000   1.0000   1.0000   1.0000   1.0000   1.0000   1.0000
     1.0000   1.0000   1.0000   1.0000   1.0000   1.0000   1.0000   1.0000
     1.0000   1.0000   1.0000   1.0000   1.0000   1.0000   1.0000   1.0000
     1.0000   1.0003   1.0276   1.0343   1.0833   1.0775   0.0691   0.0394
     0.0275   0.0234   0.0007   0.0002   0.0001   0.0001   0.0000   0.0000
     0.0000   0.0000   0.0000   0.0000   0.0000   0.0000   0.0000   0.0000
     0.0000   0.0000   0.0000   0.0000   0.0000   0.0000   0.0000   0.0000
     0.0000   0.0000   0.0000   0.0000   0.0000   0.0000   0.0000   0.0000
     0.0000   0.0000   0.0000   0.0000   0.0000   0.0000

          k = 0.0000-0.1724 0.4549 ( 29238 PWs)   bands (ev):

   -35.1727 -35.1669 -35.1604 -35.1499 -35.1467 -35.1430 -35.1323 -35.1272
   -35.1245 -35.1211 -35.1110 -35.1057 -35.1025 -35.0973 -35.0948 -35.0919
   -35.0872 -35.0853 -35.0774 -35.0739 -35.0690 -35.0667 -35.0579 -35.0553
   -13.4560 -13.4553 -13.4256 -13.4207 -13.4097 -13.4067 -13.4055 -13.3999
   -13.3972 -13.3956 -13.3878 -13.3822 -13.3800 -13.3741 -13.3687 -13.3621
   -13.3580 -13.3426 -13.3374 -13.3292 -13.3132 -13.3080 -13.2947 -13.2929
   -13.2847 -13.2793 -13.2619 -13.2547 -13.2412 -13.2264 -13.2189 -13.2166
   -13.2065 -13.1998 -13.1956 -13.1898 -13.1784 -13.1769 -13.1693 -13.1661
   -13.1642 -13.1614 -13.1582 -13.1527 -13.1449 -13.1391 -13.1322 -13.1290
   -13.1217 -13.1189 -13.1167 -13.1126 -13.1095 -13.1067 -13.1037 -13.1006
   -13.0979 -13.0939 -13.0906 -13.0838 -13.0770 -13.0750 -13.0691 -13.0627
   -13.0554 -13.0533 -13.0468 -13.0381 -13.0273 -13.0249 -13.0197 -13.0047
     2.3927   2.5183   3.2731   3.3959   3.5525   3.5862   3.6333   3.7518
     4.0643   4.1327   4.2131   4.2555   6.1465   6.2093   6.2384   6.2630
     6.2754   6.3578   6.3929   6.4117   6.4719   6.5265   7.8921   7.9156
     8.1307   8.1623   8.2426   8.2724   8.3904   8.4638   8.9584   8.9918
     9.0005   9.0460   9.7534   9.7608   9.7887   9.8131  10.0160  10.0619
    10.0761  10.1103  10.2034  10.2765  10.4001  10.4193  10.4364  10.4666
    10.4814  10.5085  10.6289  10.6505  10.8152  10.8335  10.8638  10.8844
    10.8973  10.9375  11.0294  11.1133  11.1702  11.2315  11.2510  11.3052
    11.3187  11.3357  11.3611  11.3904  11.4823  11.5502  11.5845  11.6539
    11.8531  11.9058  12.0105  12.0265  12.2036  12.2129  12.2446  12.2761
    12.3468  12.3539  12.3833  12.3967  12.4248  12.4626  12.4813  12.5556
    12.5770  12.5977  12.7805  12.7887  13.3443  13.4110  13.6474  13.6760
    14.0152  14.1198  14.1474  14.1784  14.2273  14.2773  14.3011  14.3329
    14.4285  14.4416  14.5631  14.6183  14.7505  14.8135  14.8550  14.9097
    14.9494  14.9901  15.0199  15.0321  15.0833  15.1688  15.2943  15.3065
    15.4588  15.5070  15.5544  15.5850  15.6281  15.7382  15.7835  15.8208
    15.8585  15.8689  15.8923  15.9330  15.9594  15.9835

     occupation numbers 
     1.0000   1.0000   1.0000   1.0000   1.0000   1.0000   1.0000   1.0000
     1.0000   1.0000   1.0000   1.0000   1.0000   1.0000   1.0000   1.0000
     1.0000   1.0000   1.0000   1.0000   1.0000   1.0000   1.0000   1.0000
     1.0000   1.0000   1.0000   1.0000   1.0000   1.0000   1.0000   1.0000
     1.0000   1.0000   1.0000   1.0000   1.0000   1.0000   1.0000   1.0000
     1.0000   1.0000   1.0000   1.0000   1.0000   1.0000   1.0000   1.0000
     1.0000   1.0000   1.0000   1.0000   1.0000   1.0000   1.0000   1.0000
     1.0000   1.0000   1.0000   1.0000   1.0000   1.0000   1.0000   1.0000
     1.0000   1.0000   1.0000   1.0000   1.0000   1.0000   1.0000   1.0000
     1.0000   1.0000   1.0000   1.0000   1.0000   1.0000   1.0000   1.0000
     1.0000   1.0000   1.0000   1.0000   1.0000   1.0000   1.0000   1.0000
     1.0000   1.0000   1.0000   1.0000   1.0000   1.0000   1.0000   1.0000
     1.0000   1.0000   1.0000   1.0000   1.0000   1.0000   1.0000   1.0000
     1.0000   1.0000   1.0000   1.0000   1.0000   1.0000   1.0000   1.0000
     1.0000   1.0000   1.0000   1.0000   1.0000   1.0000   1.0000   1.0000
     1.0000   1.0000   1.0000   1.0000   1.0000   1.0000   1.0000   1.0000
     1.0000   1.0000   1.0000   1.0000   1.0000   1.0000   1.0000   1.0000
     1.0000   1.0000   1.0000   1.0000   1.0000   1.0000   1.0000   1.0000
     1.0000   1.0000   1.0000   1.0000   1.0000   1.0000   1.0000   1.0000
     1.0000   1.0000   1.0000   1.0000   1.0000   1.0000   1.0000   1.0000
     1.0000   1.0000   1.0000   1.0000   1.0000   1.0000   1.0000   1.0000
     1.0000   1.0000   1.0000   1.0000   1.0000   1.0000   1.0000   1.0000
     1.0000   1.0000   1.0000   1.0000   1.0000   1.0000   1.0000   1.0000
     1.0000   1.0000   1.0013   1.0015   1.0106   0.8978   0.2961   0.2378
     0.0037   0.0006   0.0003   0.0002   0.0001   0.0000   0.0000   0.0000
     0.0000   0.0000   0.0000   0.0000   0.0000   0.0000   0.0000   0.0000
     0.0000   0.0000   0.0000   0.0000   0.0000   0.0000   0.0000   0.0000
     0.0000   0.0000   0.0000   0.0000   0.0000   0.0000   0.0000   0.0000
     0.0000   0.0000   0.0000   0.0000   0.0000   0.0000

          k = 0.0000 0.1780 0.0000 ( 29311 PWs)   bands (ev):

   -35.1741 -35.1654 -35.1600 -35.1501 -35.1471 -35.1424 -35.1327 -35.1271
   -35.1233 -35.1211 -35.1110 -35.1063 -35.1014 -35.0980 -35.0948 -35.0931
   -35.0883 -35.0851 -35.0772 -35.0743 -35.0683 -35.0672 -35.0575 -35.0548
   -13.4369 -13.4305 -13.4278 -13.4211 -13.4167 -13.4132 -13.4115 -13.4093
   -13.4035 -13.4014 -13.3946 -13.3922 -13.3907 -13.3621 -13.3592 -13.3557
   -13.3531 -13.3347 -13.3307 -13.3116 -13.3084 -13.3017 -13.2946 -13.2917
   -13.2871 -13.2812 -13.2564 -13.2486 -13.2379 -13.2259 -13.2237 -13.2104
   -13.2081 -13.2040 -13.2008 -13.1965 -13.1916 -13.1855 -13.1746 -13.1720
   -13.1700 -13.1650 -13.1611 -13.1559 -13.1540 -13.1446 -13.1397 -13.1356
   -13.1293 -13.1240 -13.1185 -13.1141 -13.1088 -13.1079 -13.1024 -13.0967
   -13.0918 -13.0891 -13.0822 -13.0803 -13.0783 -13.0717 -13.0667 -13.0626
   -13.0545 -13.0518 -13.0422 -13.0367 -13.0277 -13.0251 -13.0180 -12.9995
     2.2305   2.7702   3.2297   3.3540   3.4545   3.5043   3.8024   3.9002
     4.0510   4.1169   4.2063   4.2436   6.0258   6.1250   6.1612   6.1860
     6.2474   6.3211   6.3334   6.4840   6.5762   6.7871   7.5424   7.5702
     7.7860   7.8309   8.8006   8.8200   8.8987   8.9886   9.1757   9.2046
     9.2177   9.2557   9.8211   9.8310   9.9253   9.9594   9.9798  10.0043
    10.0263  10.0375  10.0546  10.0902  10.1151  10.1333  10.1436  10.1614
    10.1930  10.4603  10.6766  10.6936  10.7418  10.7957  10.8157  10.8494
    10.8668  10.9387  10.9543  11.0112  11.0810  11.1048  11.1378  11.1742
    11.2364  11.3258  11.3621  11.4100  11.4768  11.6330  11.6768  11.6964
    11.8708  11.9120  11.9427  11.9714  12.0005  12.0165  12.0350  12.0908
    12.1167  12.1970  12.2204  12.3566  12.3894  12.4844  12.5033  12.5178
    12.5349  12.9750  13.1111  13.1451  13.4102  13.4352  13.5321  13.5513
    13.8986  13.9485  14.0254  14.0435  14.1114  14.4303  14.4674  14.5512
    14.5824  14.6003  14.6741  14.7498  14.8733  14.8979  14.9450  14.9838
    15.0563  15.1564  15.2388  15.3352  15.3664  15.3947  15.4200  15.4683
    15.4951  15.5619  15.6148  15.6453  15.6653  15.7281  15.7689  15.7936
    15.8119  15.8447  15.8831  15.9447  16.0020  16.0248

     occupation numbers 
     1.0000   1.0000   1.0000   1.0000   1.0000   1.0000   1.0000   1.0000
     1.0000   1.0000   1.0000   1.0000   1.0000   1.0000   1.0000   1.0000
     1.0000   1.0000   1.0000   1.0000   1.0000   1.0000   1.0000   1.0000
     1.0000   1.0000   1.0000   1.0000   1.0000   1.0000   1.0000   1.0000
     1.0000   1.0000   1.0000   1.0000   1.0000   1.0000   1.0000   1.0000
     1.0000   1.0000   1.0000   1.0000   1.0000   1.0000   1.0000   1.0000
     1.0000   1.0000   1.0000   1.0000   1.0000   1.0000   1.0000   1.0000
     1.0000   1.0000   1.0000   1.0000   1.0000   1.0000   1.0000   1.0000
     1.0000   1.0000   1.0000   1.0000   1.0000   1.0000   1.0000   1.0000
     1.0000   1.0000   1.0000   1.0000   1.0000   1.0000   1.0000   1.0000
     1.0000   1.0000   1.0000   1.0000   1.0000   1.0000   1.0000   1.0000
     1.0000   1.0000   1.0000   1.0000   1.0000   1.0000   1.0000   1.0000
     1.0000   1.0000   1.0000   1.0000   1.0000   1.0000   1.0000   1.0000
     1.0000   1.0000   1.0000   1.0000   1.0000   1.0000   1.0000   1.0000
     1.0000   1.0000   1.0000   1.0000   1.0000   1.0000   1.0000   1.0000
     1.0000   1.0000   1.0000   1.0000   1.0000   1.0000   1.0000   1.0000
     1.0000   1.0000   1.0000   1.0000   1.0000   1.0000   1.0000   1.0000
     1.0000   1.0000   1.0000   1.0000   1.0000   1.0000   1.0000   1.0000
     1.0000   1.0000   1.0000   1.0000   1.0000   1.0000   1.0000   1.0000
     1.0000   1.0000   1.0000   1.0000   1.0000   1.0000   1.0000   1.0000
     1.0000   1.0000   1.0000   1.0000   1.0000   1.0000   1.0000   1.0000
     1.0000   1.0000   1.0000   1.0000   1.0000   1.0000   1.0000   1.0000
     1.0000   1.0000   1.0000   1.0000   1.0000   1.0000   1.0000   1.0000
     1.0000   1.0190   1.0590   1.0702   0.8996   0.8445   0.5905   0.5373
     0.0216   0.0106   0.0031   0.0023   0.0007   0.0000   0.0000   0.0000
     0.0000   0.0000   0.0000   0.0000   0.0000   0.0000   0.0000   0.0000
     0.0000   0.0000   0.0000   0.0000   0.0000   0.0000   0.0000   0.0000
     0.0000   0.0000   0.0000   0.0000   0.0000   0.0000   0.0000   0.0000
     0.0000   0.0000   0.0000   0.0000   0.0000   0.0000

          k = 0.0000 0.1205 0.1516 ( 29295 PWs)   bands (ev):

   -35.1740 -35.1654 -35.1600 -35.1501 -35.1472 -35.1425 -35.1327 -35.1273
   -35.1234 -35.1208 -35.1110 -35.1062 -35.1017 -35.0978 -35.0947 -35.0932
   -35.0885 -35.0846 -35.0774 -35.0742 -35.0683 -35.0672 -35.0575 -35.0549
   -13.4385 -13.4310 -13.4265 -13.4252 -13.4160 -13.4134 -13.4110 -13.4078
   -13.4030 -13.3994 -13.3924 -13.3909 -13.3883 -13.3628 -13.3602 -13.3563
   -13.3533 -13.3399 -13.3356 -13.3112 -13.3050 -13.3003 -13.2948 -13.2885
   -13.2879 -13.2788 -13.2560 -13.2494 -13.2443 -13.2264 -13.2233 -13.2100
   -13.2057 -13.2039 -13.1992 -13.1972 -13.1933 -13.1853 -13.1744 -13.1728
   -13.1683 -13.1652 -13.1610 -13.1578 -13.1528 -13.1453 -13.1380 -13.1351
   -13.1286 -13.1249 -13.1164 -13.1144 -13.1100 -13.1066 -13.1006 -13.0984
   -13.0941 -13.0878 -13.0822 -13.0811 -13.0776 -13.0721 -13.0655 -13.0634
   -13.0564 -13.0523 -13.0418 -13.0354 -13.0276 -13.0242 -13.0190 -12.9999
     2.2358   2.7629   3.2297   3.3603   3.4503   3.5086   3.7984   3.8960
     4.0483   4.1198   4.2010   4.2469   6.0331   6.1313   6.1626   6.1845
     6.2486   6.3183   6.3413   6.4801   6.5729   6.7799   7.5535   7.5775
     7.7965   7.8430   8.7666   8.8017   8.8834   8.9735   9.1674   9.1944
     9.2119   9.2427   9.7781   9.8110   9.9348   9.9720   9.9878  10.0145
    10.0355  10.0458  10.0713  10.0880  10.1178  10.1358  10.1497  10.1946
    10.2225  10.4570  10.6846  10.6985  10.7472  10.7986  10.8198  10.8527
    10.8680  10.9382  10.9471  11.0046  11.0717  11.1087  11.1333  11.1835
    11.2406  11.3227  11.3678  11.4109  11.4707  11.6314  11.6715  11.7182
[...]
    10.8536  10.8901  10.9488  10.9667  11.0449  11.0619  11.1453  11.1693
    11.2420  11.3014  11.3131  11.3409  11.3984  11.4588  11.5846  11.7055
    11.7227  11.8764  12.0187  12.1106  12.1179  12.1406  12.1574  12.1950
    12.2328  12.3942  12.4283  12.4778  12.5668  12.6175  12.6702  12.7244
    12.7423  12.7785  12.9781  13.0921  13.1648  13.1913  13.2256  13.3334
    13.6995  13.8621  13.9193  13.9644  14.1122  14.1884  14.2178  14.3452
    14.4014  14.5473  14.6144  14.6401  14.6634  14.7350  14.7768  14.8794
    14.9363  15.0435  15.0770  15.1412  15.1670  15.2082  15.2556  15.3300
    15.3833  15.4679  15.4862  15.6017  15.6871  15.7279  15.7469  15.7896
    15.8379  15.9100  15.9537  16.0194  16.0545  16.2059

     occupation numbers 
     1.0000   1.0000   1.0000   1.0000   1.0000   1.0000   1.0000   1.0000
     1.0000   1.0000   1.0000   1.0000   1.0000   1.0000   1.0000   1.0000
     1.0000   1.0000   1.0000   1.0000   1.0000   1.0000   1.0000   1.0000
     1.0000   1.0000   1.0000   1.0000   1.0000   1.0000   1.0000   1.0000
     1.0000   1.0000   1.0000   1.0000   1.0000   1.0000   1.0000   1.0000
     1.0000   1.0000   1.0000   1.0000   1.0000   1.0000   1.0000   1.0000
     1.0000   1.0000   1.0000   1.0000   1.0000   1.0000   1.0000   1.0000
     1.0000   1.0000   1.0000   1.0000   1.0000   1.0000   1.0000   1.0000
     1.0000   1.0000   1.0000   1.0000   1.0000   1.0000   1.0000   1.0000
     1.0000   1.0000   1.0000   1.0000   1.0000   1.0000   1.0000   1.0000
     1.0000   1.0000   1.0000   1.0000   1.0000   1.0000   1.0000   1.0000
     1.0000   1.0000   1.0000   1.0000   1.0000   1.0000   1.0000   1.0000
     1.0000   1.0000   1.0000   1.0000   1.0000   1.0000   1.0000   1.0000
     1.0000   1.0000   1.0000   1.0000   1.0000   1.0000   1.0000   1.0000
     1.0000   1.0000   1.0000   1.0000   1.0000   1.0000   1.0000   1.0000
     1.0000   1.0000   1.0000   1.0000   1.0000   1.0000   1.0000   1.0000
     1.0000   1.0000   1.0000   1.0000   1.0000   1.0000   1.0000   1.0000
     1.0000   1.0000   1.0000   1.0000   1.0000   1.0000   1.0000   1.0000
     1.0000   1.0000   1.0000   1.0000   1.0000   1.0000   1.0000   1.0000
     1.0000   1.0000   1.0000   1.0000   1.0000   1.0000   1.0000   1.0000
     1.0000   1.0000   1.0000   1.0000   1.0000   1.0000   1.0000   1.0000
     1.0000   1.0000   1.0000   1.0000   1.0000   1.0000   1.0000   1.0000
     1.0000   1.0000   1.0000   1.0000   1.0000   1.0001   1.0002   1.0005
     1.0007   1.0013   1.0196   1.0525   1.0757   1.0812   1.0831   1.0239
     0.1956   0.0348   0.0162   0.0083   0.0006   0.0001   0.0001   0.0000
     0.0000   0.0000   0.0000   0.0000   0.0000   0.0000   0.0000   0.0000
     0.0000   0.0000   0.0000   0.0000   0.0000   0.0000   0.0000   0.0000
     0.0000   0.0000   0.0000   0.0000   0.0000   0.0000   0.0000   0.0000
     0.0000   0.0000   0.0000   0.0000   0.0000   0.0000

          k = 0.3333-0.8842 0.4549 ( 29287 PWs)   bands (ev):

   -35.1717 -35.1617 -35.1603 -35.1560 -35.1471 -35.1419 -35.1315 -35.1293
   -35.1233 -35.1216 -35.1130 -35.1069 -35.1026 -35.0982 -35.0951 -35.0930
   -35.0902 -35.0831 -35.0778 -35.0744 -35.0688 -35.0671 -35.0582 -35.0554
   -13.4218 -13.4167 -13.4072 -13.4048 -13.3997 -13.3957 -13.3850 -13.3800
   -13.3766 -13.3710 -13.3690 -13.3664 -13.3634 -13.3592 -13.3527 -13.3485
   -13.3421 -13.3383 -13.3314 -13.3233 -13.3206 -13.3149 -13.3109 -13.3041
   -13.2967 -13.2763 -13.2671 -13.2573 -13.2475 -13.2429 -13.2405 -13.2378
   -13.2305 -13.2289 -13.2214 -13.2159 -13.2082 -13.2052 -13.2000 -13.1951
   -13.1898 -13.1828 -13.1713 -13.1639 -13.1606 -13.1482 -13.1443 -13.1376
   -13.1308 -13.1251 -13.1201 -13.1164 -13.1127 -13.1078 -13.1058 -13.0972
   -13.0928 -13.0903 -13.0838 -13.0731 -13.0705 -13.0634 -13.0599 -13.0506
   -13.0464 -13.0459 -13.0401 -13.0373 -13.0272 -13.0164 -13.0149 -12.9983
     2.8123   2.8886   3.0203   3.1498   3.2144   3.3320   3.3990   3.5790
     4.4314   4.5132   4.6123   4.7492   5.2977   5.3882   5.5012   5.6134
     6.7682   6.8239   6.8773   6.9090   6.9906   7.0008   7.0766   7.3599
     8.7132   8.7788   8.8999   8.9321   8.9782   9.0237   9.0506   9.2118
     9.2648   9.3474   9.4187   9.4638   9.5155   9.5849   9.6243   9.7118
     9.7704   9.8526   9.9380   9.9580  10.0203  10.0488  10.1042  10.1645
    10.4011  10.5857  10.6260  10.6458  10.7033  10.7309  10.8073  10.8335
    10.8822  10.9122  10.9543  11.0004  11.0391  11.0468  11.0871  11.1062
    11.1530  11.3351  11.3693  11.3914  11.4074  11.4981  11.5276  11.5868
    11.7983  11.8460  12.0606  12.0834  12.1049  12.1205  12.1704  12.1887
    12.2627  12.3875  12.4439  12.4685  12.5647  12.6237  12.6682  12.6939
    12.7320  12.8614  13.0476  13.0965  13.1132  13.2306  13.2726  13.3511
    13.6664  13.7627  13.7916  14.0238  14.0607  14.1204  14.1894  14.3712
    14.4552  14.5751  14.6127  14.6253  14.7196  14.7783  14.8120  14.8506
    14.9677  15.0566  15.1047  15.1563  15.1983  15.2625  15.3023  15.3588
    15.3777  15.4189  15.4353  15.5491  15.6295  15.6759  15.7340  15.7640
    15.8164  15.8967  15.9396  16.0214  16.0484  16.0969

     occupation numbers 
     1.0000   1.0000   1.0000   1.0000   1.0000   1.0000   1.0000   1.0000
     1.0000   1.0000   1.0000   1.0000   1.0000   1.0000   1.0000   1.0000
     1.0000   1.0000   1.0000   1.0000   1.0000   1.0000   1.0000   1.0000
     1.0000   1.0000   1.0000   1.0000   1.0000   1.0000   1.0000   1.0000
     1.0000   1.0000   1.0000   1.0000   1.0000   1.0000   1.0000   1.0000
     1.0000   1.0000   1.0000   1.0000   1.0000   1.0000   1.0000   1.0000
     1.0000   1.0000   1.0000   1.0000   1.0000   1.0000   1.0000   1.0000
     1.0000   1.0000   1.0000   1.0000   1.0000   1.0000   1.0000   1.0000
     1.0000   1.0000   1.0000   1.0000   1.0000   1.0000   1.0000   1.0000
     1.0000   1.0000   1.0000   1.0000   1.0000   1.0000   1.0000   1.0000
     1.0000   1.0000   1.0000   1.0000   1.0000   1.0000   1.0000   1.0000
     1.0000   1.0000   1.0000   1.0000   1.0000   1.0000   1.0000   1.0000
     1.0000   1.0000   1.0000   1.0000   1.0000   1.0000   1.0000   1.0000
     1.0000   1.0000   1.0000   1.0000   1.0000   1.0000   1.0000   1.0000
     1.0000   1.0000   1.0000   1.0000   1.0000   1.0000   1.0000   1.0000
     1.0000   1.0000   1.0000   1.0000   1.0000   1.0000   1.0000   1.0000
     1.0000   1.0000   1.0000   1.0000   1.0000   1.0000   1.0000   1.0000
     1.0000   1.0000   1.0000   1.0000   1.0000   1.0000   1.0000   1.0000
     1.0000   1.0000   1.0000   1.0000   1.0000   1.0000   1.0000   1.0000
     1.0000   1.0000   1.0000   1.0000   1.0000   1.0000   1.0000   1.0000
     1.0000   1.0000   1.0000   1.0000   1.0000   1.0000   1.0000   1.0000
     1.0000   1.0000   1.0000   1.0000   1.0000   1.0000   1.0000   1.0000
     1.0000   1.0000   1.0000   1.0000   1.0000   1.0001   1.0002   1.0003
     1.0006   1.0046   1.0377   1.0540   1.0598   1.0828   1.0718   1.0016
     0.2564   0.1083   0.0799   0.0032   0.0017   0.0006   0.0001   0.0000
     0.0000   0.0000   0.0000   0.0000   0.0000   0.0000   0.0000   0.0000
     0.0000   0.0000   0.0000   0.0000   0.0000   0.0000   0.0000   0.0000
     0.0000   0.0000   0.0000   0.0000   0.0000   0.0000   0.0000   0.0000
     0.0000   0.0000   0.0000   0.0000   0.0000   0.0000

          k = 0.3333-0.8268 0.3033 ( 29272 PWs)   bands (ev):

   -35.1716 -35.1615 -35.1605 -35.1561 -35.1474 -35.1417 -35.1308 -35.1297
   -35.1235 -35.1220 -35.1129 -35.1067 -35.1024 -35.0984 -35.0950 -35.0930
   -35.0897 -35.0840 -35.0774 -35.0743 -35.0689 -35.0671 -35.0583 -35.0554
   -13.4211 -13.4164 -13.4057 -13.4024 -13.3981 -13.3952 -13.3880 -13.3810
   -13.3766 -13.3726 -13.3709 -13.3684 -13.3640 -13.3608 -13.3531 -13.3482
   -13.3406 -13.3370 -13.3293 -13.3236 -13.3205 -13.3161 -13.3124 -13.3073
   -13.2968 -13.2698 -13.2647 -13.2595 -13.2462 -13.2426 -13.2390 -13.2339
   -13.2300 -13.2262 -13.2216 -13.2157 -13.2144 -13.2094 -13.2024 -13.1965
   -13.1930 -13.1803 -13.1664 -13.1609 -13.1570 -13.1543 -13.1442 -13.1407
   -13.1312 -13.1293 -13.1203 -13.1156 -13.1096 -13.1061 -13.1037 -13.0975
   -13.0923 -13.0871 -13.0809 -13.0767 -13.0700 -13.0659 -13.0600 -13.0567
   -13.0484 -13.0446 -13.0379 -13.0328 -13.0268 -13.0195 -13.0146 -12.9975
     2.8566   2.8844   2.9597   3.1809   3.2264   3.3067   3.3847   3.5922
     4.4395   4.5452   4.5586   4.7618   5.2945   5.4297   5.4555   5.6210
     6.8208   6.8419   6.8588   6.9040   6.9726   6.9884   7.0470   7.4103
     8.6265   8.8519   8.8581   8.8814   8.9551   9.0542   9.1386   9.1829
     9.2111   9.3332   9.4133   9.4706   9.4878   9.5660   9.6822   9.7326
     9.7422   9.8111   9.9727  10.0019  10.0265  10.0532  10.1063  10.1680
    10.4139  10.6331  10.6570  10.6917  10.7376  10.7591  10.7837  10.8050
    10.8322  10.8461  10.9409  10.9839  11.0119  11.0486  11.0824  11.1151
    11.1467  11.3499  11.3955  11.4192  11.4522  11.4800  11.5028  11.5603
    11.8355  11.9224  11.9301  12.0539  12.1003  12.1168  12.2000  12.2435
    12.2596  12.3188  12.3997  12.4912  12.6063  12.6437  12.6783  12.7213
    12.7514  12.9481  12.9999  13.0313  13.2988  13.3123  13.3311  13.3697
    13.4224  13.7055  13.8344  13.8777  13.9300  13.9375  14.2912  14.3420
    14.4707  14.5515  14.6171  14.7492  14.7748  14.8541  14.9276  14.9542
    15.0094  15.0966  15.1335  15.1930  15.2091  15.2496  15.2709  15.3072
    15.3497  15.4085  15.5038  15.5643  15.5959  15.6129  15.6863  15.7206
    15.7481  15.8173  15.9465  16.0030  16.0406  16.0883

     occupation numbers 
     1.0000   1.0000   1.0000   1.0000   1.0000   1.0000   1.0000   1.0000
     1.0000   1.0000   1.0000   1.0000   1.0000   1.0000   1.0000   1.0000
     1.0000   1.0000   1.0000   1.0000   1.0000   1.0000   1.0000   1.0000
     1.0000   1.0000   1.0000   1.0000   1.0000   1.0000   1.0000   1.0000
     1.0000   1.0000   1.0000   1.0000   1.0000   1.0000   1.0000   1.0000
     1.0000   1.0000   1.0000   1.0000   1.0000   1.0000   1.0000   1.0000
     1.0000   1.0000   1.0000   1.0000   1.0000   1.0000   1.0000   1.0000
     1.0000   1.0000   1.0000   1.0000   1.0000   1.0000   1.0000   1.0000
     1.0000   1.0000   1.0000   1.0000   1.0000   1.0000   1.0000   1.0000
     1.0000   1.0000   1.0000   1.0000   1.0000   1.0000   1.0000   1.0000
     1.0000   1.0000   1.0000   1.0000   1.0000   1.0000   1.0000   1.0000
     1.0000   1.0000   1.0000   1.0000   1.0000   1.0000   1.0000   1.0000
     1.0000   1.0000   1.0000   1.0000   1.0000   1.0000   1.0000   1.0000
     1.0000   1.0000   1.0000   1.0000   1.0000   1.0000   1.0000   1.0000
     1.0000   1.0000   1.0000   1.0000   1.0000   1.0000   1.0000   1.0000
     1.0000   1.0000   1.0000   1.0000   1.0000   1.0000   1.0000   1.0000
     1.0000   1.0000   1.0000   1.0000   1.0000   1.0000   1.0000   1.0000
     1.0000   1.0000   1.0000   1.0000   1.0000   1.0000   1.0000   1.0000
     1.0000   1.0000   1.0000   1.0000   1.0000   1.0000   1.0000   1.0000
     1.0000   1.0000   1.0000   1.0000   1.0000   1.0000   1.0000   1.0000
     1.0000   1.0000   1.0000   1.0000   1.0000   1.0000   1.0000   1.0000
     1.0000   1.0000   1.0000   1.0000   1.0000   1.0000   1.0000   1.0000
     1.0000   1.0000   1.0000   1.0000   1.0000   1.0001   1.0002   1.0005
     1.0008   1.0141   1.0245   1.0328   1.0563   1.0453   1.0265   0.9741
     0.8736   0.1858   0.0490   0.0285   0.0139   0.0125   0.0000   0.0000
     0.0000   0.0000   0.0000   0.0000   0.0000   0.0000   0.0000   0.0000
     0.0000   0.0000   0.0000   0.0000   0.0000   0.0000   0.0000   0.0000
     0.0000   0.0000   0.0000   0.0000   0.0000   0.0000   0.0000   0.0000
     0.0000   0.0000   0.0000   0.0000   0.0000   0.0000

          k = 0.3333-0.7693 0.1516 ( 29291 PWs)   bands (ev):

   -35.1716 -35.1614 -35.1607 -35.1561 -35.1475 -35.1415 -35.1303 -35.1296
   -35.1240 -35.1223 -35.1128 -35.1067 -35.1019 -35.0986 -35.0950 -35.0930
   -35.0890 -35.0853 -35.0771 -35.0743 -35.0689 -35.0671 -35.0583 -35.0554
   -13.4196 -13.4168 -13.4090 -13.4035 -13.3984 -13.3908 -13.3869 -13.3842
   -13.3788 -13.3732 -13.3709 -13.3688 -13.3622 -13.3578 -13.3535 -13.3467
   -13.3404 -13.3362 -13.3303 -13.3239 -13.3202 -13.3159 -13.3124 -13.3030
   -13.2973 -13.2755 -13.2671 -13.2570 -13.2490 -13.2439 -13.2379 -13.2338
   -13.2302 -13.2280 -13.2233 -13.2171 -13.2143 -13.2079 -13.1990 -13.1931
   -13.1901 -13.1790 -13.1689 -13.1643 -13.1573 -13.1492 -13.1449 -13.1408
   -13.1326 -13.1263 -13.1226 -13.1168 -13.1104 -13.1074 -13.1033 -13.1002
   -13.0920 -13.0854 -13.0817 -13.0761 -13.0699 -13.0635 -13.0594 -13.0559
   -13.0511 -13.0437 -13.0369 -13.0330 -13.0267 -13.0225 -13.0125 -12.9978
     2.8090   2.9277   2.9660   3.1646   3.2502   3.2815   3.4198   3.5757
     4.4486   4.4870   4.6243   4.7458   5.2958   5.3986   5.4949   5.6123
     6.7725   6.8230   6.8771   6.9119   6.9767   7.0056   7.0740   7.3741
     8.6870   8.7888   8.8962   8.9251   8.9769   9.0069   9.0649   9.1910
     9.2823   9.3568   9.4051   9.4905   9.5077   9.5907   9.5989   9.7225
     9.7590   9.8892   9.9323   9.9517  10.0393  10.0514  10.1099  10.1590
    10.4028  10.5852  10.6394  10.6489  10.6985  10.7439  10.7808  10.8521
    10.8698  10.9117  10.9641  10.9994  11.0220  11.0430  11.0615  11.1042
    11.1594  11.3356  11.3693  11.4135  11.4478  11.4798  11.5085  11.5684
    11.7919  11.8453  12.0464  12.0909  12.0935  12.1353  12.1575  12.1910
    12.2605  12.4060  12.4243  12.4840  12.5797  12.6379  12.6570  12.6952
    12.7281  12.8643  13.0628  13.0765  13.1561  13.2459  13.2889  13.3679
    13.6590  13.7058  13.8121  13.9853  14.0002  14.0847  14.2348  14.4136
    14.4237  14.5447  14.5770  14.6685  14.7432  14.7798  14.8142  14.8602
    14.9899  15.0616  15.1258  15.1563  15.2131  15.2615  15.3050  15.3279
    15.3709  15.4035  15.4421  15.5405  15.6342  15.6552  15.7001  15.7740
    15.8503  15.8972  15.9215  16.0234  16.0631  16.1065

     occupation numbers 
     1.0000   1.0000   1.0000   1.0000   1.0000   1.0000   1.0000   1.0000
     1.0000   1.0000   1.0000   1.0000   1.0000   1.0000   1.0000   1.0000
     1.0000   1.0000   1.0000   1.0000   1.0000   1.0000   1.0000   1.0000
     1.0000   1.0000   1.0000   1.0000   1.0000   1.0000   1.0000   1.0000
     1.0000   1.0000   1.0000   1.0000   1.0000   1.0000   1.0000   1.0000
     1.0000   1.0000   1.0000   1.0000   1.0000   1.0000   1.0000   1.0000
     1.0000   1.0000   1.0000   1.0000   1.0000   1.0000   1.0000   1.0000
     1.0000   1.0000   1.0000   1.0000   1.0000   1.0000   1.0000   1.0000
     1.0000   1.0000   1.0000   1.0000   1.0000   1.0000   1.0000   1.0000
     1.0000   1.0000   1.0000   1.0000   1.0000   1.0000   1.0000   1.0000
     1.0000   1.0000   1.0000   1.0000   1.0000   1.0000   1.0000   1.0000
     1.0000   1.0000   1.0000   1.0000   1.0000   1.0000   1.0000   1.0000
     1.0000   1.0000   1.0000   1.0000   1.0000   1.0000   1.0000   1.0000
     1.0000   1.0000   1.0000   1.0000   1.0000   1.0000   1.0000   1.0000
     1.0000   1.0000   1.0000   1.0000   1.0000   1.0000   1.0000   1.0000
     1.0000   1.0000   1.0000   1.0000   1.0000   1.0000   1.0000   1.0000
     1.0000   1.0000   1.0000   1.0000   1.0000   1.0000   1.0000   1.0000
     1.0000   1.0000   1.0000   1.0000   1.0000   1.0000   1.0000   1.0000
     1.0000   1.0000   1.0000   1.0000   1.0000   1.0000   1.0000   1.0000
     1.0000   1.0000   1.0000   1.0000   1.0000   1.0000   1.0000   1.0000
     1.0000   1.0000   1.0000   1.0000   1.0000   1.0000   1.0000   1.0000
     1.0000   1.0000   1.0000   1.0000   1.0000   1.0000   1.0000   1.0000
     1.0000   1.0000   1.0000   1.0000   1.0000   1.0001   1.0001   1.0003
     1.0005   1.0048   1.0426   1.0471   1.0734   1.0805   1.0630   0.9768
     0.2715   0.1852   0.0636   0.0060   0.0047   0.0011   0.0001   0.0000
     0.0000   0.0000   0.0000   0.0000   0.0000   0.0000   0.0000   0.0000
     0.0000   0.0000   0.0000   0.0000   0.0000   0.0000   0.0000   0.0000
     0.0000   0.0000   0.0000   0.0000   0.0000   0.0000   0.0000   0.0000
     0.0000   0.0000   0.0000   0.0000   0.0000   0.0000

     the Fermi energy is    13.6029 ev

!    total energy              =   -2656.96530659 Ry
     Harris-Foulkes estimate   =   -2656.96530631 Ry
     estimated scf accuracy    <       0.00000044 Ry

     The total energy is the sum of the following terms:

     one-electron contribution =    -398.57234049 Ry
     hartree contribution      =     372.94946707 Ry
     xc contribution           =    -578.20516995 Ry
     ewald contribution        =   -2053.14345179 Ry
     smearing contrib. (-TS)   =       0.00618857 Ry

     total magnetization       =    -0.00 Bohr mag/cell
     absolute magnetization    =     0.01 Bohr mag/cell

     convergence has been achieved in  20 iterations

     Writing output data file aiid_.save
 
     init_run     :     66.03s CPU     69.83s WALL (       1 calls)
     electrons    :   3023.88s CPU   3152.13s WALL (       1 calls)

     Called by init_run:
     wfcinit      :     55.96s CPU     58.53s WALL (       1 calls)
     wfcinit:atom :      0.18s CPU      0.29s WALL (      24 calls)
     wfcinit:wfcr :     52.98s CPU     54.83s WALL (      24 calls)
     potinit      :      1.70s CPU      1.97s WALL (       1 calls)

     Called by electrons:
     c_bands      :   2701.05s CPU   2819.49s WALL (      20 calls)
     sum_band     :    286.29s CPU    293.50s WALL (      20 calls)
     v_of_rho     :     10.11s CPU     10.54s WALL (      21 calls)
     v_h          :      0.21s CPU      0.22s WALL (      21 calls)
     v_xc         :      9.91s CPU     10.31s WALL (      21 calls)
     newd         :     24.42s CPU     25.62s WALL (      21 calls)
     mix_rho      :      1.17s CPU      1.59s WALL (      20 calls)

     Called by c_bands:
     init_us_2    :     11.50s CPU     11.58s WALL (     984 calls)
     cegterg      :   2315.27s CPU   2404.23s WALL (     480 calls)

     Called by sum_band:
     sum_band:bec :      1.73s CPU      1.87s WALL (     480 calls)
     addusdens    :     39.67s CPU     41.11s WALL (      20 calls)

     Called by *egterg:
     h_psi        :   1128.36s CPU   1153.05s WALL (    2320 calls)
     s_psi        :    159.11s CPU    159.32s WALL (    2320 calls)
     g_psi        :      3.06s CPU      3.08s WALL (    1816 calls)
     cdiaghg      :    760.76s CPU    800.83s WALL (    2296 calls)
     cegterg:over :    111.93s CPU    112.34s WALL (    1816 calls)
     cegterg:upda :    101.14s CPU    102.32s WALL (    1816 calls)
     cegterg:last :     36.91s CPU     37.68s WALL (     480 calls)
     cdiaghg:chol :     22.28s CPU     29.77s WALL (    2296 calls)
     cdiaghg:inve :      6.15s CPU      7.67s WALL (    2296 calls)
     cdiaghg:para :     42.08s CPU     51.17s WALL (    4592 calls)

     Called by h_psi:
     h_psi:pot    :   1124.83s CPU   1149.48s WALL (    2320 calls)
     h_psi:calbec :    145.12s CPU    145.57s WALL (    2320 calls)
     vloc_psi     :    817.44s CPU    840.24s WALL (    2320 calls)
     add_vuspsi   :    162.20s CPU    163.59s WALL (    2320 calls)

     General routines
     calbec       :    200.37s CPU    200.95s WALL (    2800 calls)
     fft          :      4.92s CPU      5.87s WALL (     641 calls)
     ffts         :      0.18s CPU      0.21s WALL (      82 calls)
     fftw         :    781.43s CPU    804.96s WALL (  662388 calls)
     interpolate  :      0.91s CPU      0.99s WALL (      82 calls)
     davcio       :      0.00s CPU      3.77s WALL (      24 calls)
 
     Parallel routines
     fft_scatter  :    267.78s CPU    279.49s WALL (  663111 calls)
 
     PWSCF        : 51m37.36s CPU    54m18.10s WALL

 
   This run was terminated on:  15:31:34  24Apr2017            

=------------------------------------------------------------------------------=
   JOB DONE.
=------------------------------------------------------------------------------=
