
     Program PWSCF v.6.1 (svn rev. 13369) starts on  2May2017 at 11:52:27 

     This program is part of the open-source Quantum ESPRESSO suite
     for quantum simulation of materials; please cite
         "P. Giannozzi et al., J. Phys.:Condens. Matter 21 395502 (2009);
          URL http://www.quantum-espresso.org", 
     in publications or presentations arising from this work. More details at
     http://www.quantum-espresso.org/quote

     Parallel version (MPI), running on  1024 processors
     K-points division:     npool     =      64
     R & G space division:  proc/nbgrp/npool/nimage =      16
     Reading input from pw.in

     Current dimensions of program PWSCF are:
     Max number of different atomic species (ntypx) = 10
     Max number of k-points (npk) =  40000
     Max angular momentum in pseudopotentials (lmaxx) =  3

     Subspace diagonalization in iterative solution of the eigenvalue problem:
     one sub-group per band group will be used
     custom distributed-memory algorithm (size of sub-group:  4*  4 procs)

 
     Parallelization info
     --------------------
     sticks:   dense  smooth     PW     G-vecs:    dense   smooth      PW
     Min        1019     509    142                70178    24813    3646
     Max        1020     510    143                70179    24815    3647
     Sum       16309    8157   2279              1122861   397029   58347
 


     bravais-lattice index     =            0
     lattice parameter (alat)  =      31.4056  a.u.
     unit-cell volume          =    9734.7308 (a.u.)^3
     number of atoms/cell      =           24
     number of atomic types    =            2
     number of electrons       =       192.00
     number of Kohn-Sham states=          115
     kinetic-energy cutoff     =      45.0000  Ry
     charge density cutoff     =     360.0000  Ry
     convergence threshold     =      2.4E-07
     mixing beta               =       0.3500
     number of iterations used =            8  plain     mixing
     Exchange-correlation      = SLA  PW   PBE  PBE ( 1  4  3  4 0 0)

     celldm(1)=  31.405604  celldm(2)=   0.000000  celldm(3)=   0.000000
     celldm(4)=   0.000000  celldm(5)=   0.000000  celldm(6)=   0.000000

     crystal axes: (cart. coord. in units of alat)
               a(1) = (   1.000000   0.000000   0.000000 )  
               a(2) = (  -0.333333   0.471405  -0.333333 )  
               a(3) = (   0.000000   0.000000   0.666667 )  

     reciprocal axes: (cart. coord. in units 2 pi/alat)
               b(1) = (  1.000000  0.707107  0.000000 )  
               b(2) = (  0.000000  2.121320  0.000000 )  
               b(3) = (  0.000000  1.060660  1.500000 )  


     PseudoPot. # 1 for Cs read from file:
     ./pseudo/Cs_pbe_v1.uspp.F.UPF
     MD5 check sum: 3476d69cb178dfad3ffaa59df4e07ca4
     Pseudo is Ultrasoft + core correction, Zval =  9.0
     Generated by new atomic code, or converted to UPF format
     Using radial grid of  905 points,  6 beta functions with: 
                l(1) =   0
                l(2) =   0
                l(3) =   1
                l(4) =   1
                l(5) =   2
                l(6) =   2
     Q(r) pseudized with  6 coefficients,  rinner =    1.500   1.500   1.500
                                                       1.500   1.500

     PseudoPot. # 2 for I  read from file:
     ./pseudo/I_pbe_v1.uspp.F.UPF
     MD5 check sum: 51366c2fb896752a147e77acbb9f6bcb
     Pseudo is Ultrasoft + core correction, Zval =  7.0
     Generated by new atomic code, or converted to UPF format
     Using radial grid of  893 points,  6 beta functions with: 
                l(1) =   0
                l(2) =   0
                l(3) =   1
                l(4) =   1
                l(5) =   2
                l(6) =   2
     Q(r) pseudized with  8 coefficients,  rinner =    1.500   1.500   1.500
                                                       1.500   1.500

     atomic species   valence    mass     pseudopotential
        Cs             9.00   132.90545     Cs( 1.00)
        I              7.00   126.90447     I ( 1.00)

     No symmetry found


                                    s                        frac. trans.

      isym =  1     identity                                     

 cryst.   s( 1) = (     1          0          0      )
                  (     0          1          0      )
                  (     0          0          1      )

 cart.    s( 1) = (  1.0000000  0.0000000  0.0000000 )
                  (  0.0000000  1.0000000  0.0000000 )
                  (  0.0000000  0.0000000  1.0000000 )


   Cartesian axes

     site n.     atom                  positions (alat units)
         1           Cs  tau(   1) = (  -0.0005521   0.0026429   0.6626814  )
         2           Cs  tau(   2) = (   0.6652750   0.4706798   0.0045508  )
         3           Cs  tau(   3) = (   0.8306656   0.2318503   0.4988968  )
         4           Cs  tau(   4) = (  -0.1669270   0.2371376   0.1620793  )
         5           Cs  tau(   5) = (   0.3364226   0.0035193  -0.0011148  )
         6           Cs  tau(   6) = (  -0.0040065   0.4711319   0.0026543  )
         7           Cs  tau(   7) = (   0.1624879   0.2371932  -0.1647993  )
         8           Cs  tau(   8) = (   0.1678616   0.2352843   0.1620224  )
         9           Cs  tau(   9) = (   0.3322264   0.4680203  -0.3300939  )
        10           Cs  tau(  10) = (   0.3298237   0.4681141   0.0001662  )
        11           Cs  tau(  11) = (   0.4971777   0.2392076  -0.1649582  )
        12           Cs  tau(  12) = (   0.5009320   0.2319484   0.1638010  )
        13           I   tau(  13) = (  -0.1636183   0.4710614  -0.1629570  )
        14           I   tau(  14) = (   0.1709796   0.0019348   0.5009093  )
        15           I   tau(  15) = (  -0.0028342   0.2345837   0.0037266  )
        16           I   tau(  16) = (  -0.0047842   0.2354132   0.3328859  )
        17           I   tau(  17) = (   0.1682856   0.4705384  -0.1711165  )
        18           I   tau(  18) = (   0.1637733   0.4676207   0.1673615  )
        19           I   tau(  19) = (   0.3308541   0.2323943  -0.0024663  )
        20           I   tau(  20) = (   0.3314113   0.2384359   0.3298685  )
        21           I   tau(  21) = (   0.8320405   0.0046296   0.1669271  )
        22           I   tau(  22) = (   0.8288091   0.0013232   0.4990241  )
        23           I   tau(  23) = (   0.6631975   0.2355580  -0.0033341  )
        24           I   tau(  24) = (   0.6712487   0.2343299   0.3338752  )

   Crystallographic axes

     site n.     atom                  positions (cryst. coord.)
         1           Cs  tau(   1) = (  0.0013168  0.0056065  0.9968254  )
         2           Cs  tau(   2) = (  0.9980959  0.9984626  0.5060576  )
         3           Cs  tau(   3) = (  0.9946085  0.4918287  0.9942595  )
         4           Cs  tau(   4) = (  0.0007546  0.5030449  0.4946414  )
         5           Cs  tau(   5) = (  0.3389111  0.0074657  0.0020607  )
         6           Cs  tau(   6) = (  0.3291340  0.9994216  0.5036923  )
         7           Cs  tau(   7) = (  0.3302088  0.5031628  0.0043825  )
         8           Cs  tau(   8) = (  0.3342327  0.4991134  0.4925903  )
         9           Cs  tau(   9) = (  0.6631667  0.9928210  0.0012696  )
        10           Cs  tau(  10) = (  0.6608304  0.9930200  0.4967593  )
        11           Cs  tau(  11) = (  0.6663230  0.5074360  0.0062807  )
        12           Cs  tau(  12) = (  0.6649443  0.4920369  0.4917199  )
        13           I   tau(  13) = (  0.1694724  0.9992722  0.2552006  )
        14           I   tau(  14) = (  0.1723478  0.0041044  0.7534161  )
        15           I   tau(  15) = (  0.1630415  0.4976271  0.2544035  )
        16           I   tau(  16) = (  0.1616781  0.4993868  0.7490222  )
        17           I   tau(  17) = (  0.5010064  0.9981626  0.2424066  )
        18           I   tau(  18) = (  0.4944310  0.9919733  0.7470289  )
        19           I   tau(  19) = (  0.4951817  0.4929827  0.2427919  )
        20           I   tau(  20) = (  0.5000110  0.5057990  0.7477023  )
        21           I   tau(  21) = (  0.8353141  0.0098208  0.2553011  )
        22           I   tau(  22) = (  0.8297448  0.0028070  0.7499397  )
        23           I   tau(  23) = (  0.8297622  0.4996941  0.2448459  )
        24           I   tau(  24) = (  0.8369449  0.4970888  0.7493572  )

     number of k points=   293  Marzari-Vanderbilt smearing, width (Ry)=  0.0200
                       cart. coord. in units 2pi/alat
        k(    1) = (   0.0000000   0.0000000   0.0000000), wk =   0.0063492
        k(    2) = (   0.0000000   0.1515229   0.2142857), wk =   0.0063492
        k(    3) = (   0.0000000   0.3030458   0.4285714), wk =   0.0063492
        k(    4) = (   0.0000000   0.4545686   0.6428571), wk =   0.0063492
        k(    5) = (   0.0000000   0.2357023   0.0000000), wk =   0.0126984
        k(    6) = (   0.0000000   0.3872251   0.2142857), wk =   0.0063492
        k(    7) = (   0.0000000   0.5387480   0.4285714), wk =   0.0063492
        k(    8) = (   0.0000000   0.6902709   0.6428571), wk =   0.0063492
        k(    9) = (   0.0000000  -0.2188664  -0.6428571), wk =   0.0063492
        k(   10) = (   0.0000000  -0.0673435  -0.4285714), wk =   0.0063492
        k(   11) = (   0.0000000   0.0841794  -0.2142857), wk =   0.0063492
        k(   12) = (   0.0000000   0.4714045   0.0000000), wk =   0.0126984
        k(   13) = (   0.0000000   0.6229274   0.2142857), wk =   0.0063492
        k(   14) = (   0.0000000   0.7744503   0.4285714), wk =   0.0063492
        k(   15) = (   0.0000000   0.9259732   0.6428571), wk =   0.0063492
        k(   16) = (   0.0000000   0.0168359  -0.6428571), wk =   0.0063492
        k(   17) = (   0.0000000   0.1683588  -0.4285714), wk =   0.0063492
        k(   18) = (   0.0000000   0.3198816  -0.2142857), wk =   0.0063492
        k(   19) = (   0.0000000   0.7071068   0.0000000), wk =   0.0126984
        k(   20) = (   0.0000000   0.8586297   0.2142857), wk =   0.0063492
        k(   21) = (   0.0000000   1.0101525   0.4285714), wk =   0.0063492
        k(   22) = (   0.0000000   1.1616754   0.6428571), wk =   0.0063492
        k(   23) = (   0.0000000   0.2525381  -0.6428571), wk =   0.0063492
        k(   24) = (   0.0000000   0.4040610  -0.4285714), wk =   0.0063492
        k(   25) = (   0.0000000   0.5555839  -0.2142857), wk =   0.0063492
        k(   26) = (   0.0000000   0.9428090   0.0000000), wk =   0.0126984
        k(   27) = (   0.0000000   1.0943319   0.2142857), wk =   0.0063492
        k(   28) = (   0.0000000   1.2458548   0.4285714), wk =   0.0063492
        k(   29) = (   0.0000000   1.3973777   0.6428571), wk =   0.0063492
        k(   30) = (   0.0000000   0.4882404  -0.6428571), wk =   0.0063492
        k(   31) = (   0.0000000   0.6397633  -0.4285714), wk =   0.0063492
        k(   32) = (   0.0000000   0.7912862  -0.2142857), wk =   0.0063492
        k(   33) = (   0.2000000   0.1414214   0.0000000), wk =   0.0126984
        k(   34) = (   0.2000000   0.2929442   0.2142857), wk =   0.0063492
        k(   35) = (   0.2000000   0.4444671   0.4285714), wk =   0.0063492
        k(   36) = (   0.2000000   0.5959900   0.6428571), wk =   0.0063492
        k(   37) = (   0.2000000  -0.3131473  -0.6428571), wk =   0.0063492
        k(   38) = (   0.2000000  -0.1616244  -0.4285714), wk =   0.0063492
        k(   39) = (   0.2000000  -0.0101015  -0.2142857), wk =   0.0063492
        k(   40) = (   0.2000000   0.3771236   0.0000000), wk =   0.0126984
        k(   41) = (   0.2000000   0.5286465   0.2142857), wk =   0.0063492
        k(   42) = (   0.2000000   0.6801694   0.4285714), wk =   0.0063492
        k(   43) = (   0.2000000   0.8316923   0.6428571), wk =   0.0063492
        k(   44) = (   0.2000000  -0.0774450  -0.6428571), wk =   0.0063492
        k(   45) = (   0.2000000   0.0740779  -0.4285714), wk =   0.0063492
        k(   46) = (   0.2000000   0.2256007  -0.2142857), wk =   0.0063492
        k(   47) = (   0.2000000   0.6128259   0.0000000), wk =   0.0126984
        k(   48) = (   0.2000000   0.7643488   0.2142857), wk =   0.0063492
        k(   49) = (   0.2000000   0.9158716   0.4285714), wk =   0.0063492
        k(   50) = (   0.2000000   1.0673945   0.6428571), wk =   0.0063492
        k(   51) = (   0.2000000   0.1582572  -0.6428571), wk =   0.0063492
        k(   52) = (   0.2000000   0.3097801  -0.4285714), wk =   0.0063492
        k(   53) = (   0.2000000   0.4613030  -0.2142857), wk =   0.0063492
        k(   54) = (   0.2000000   0.8485281   0.0000000), wk =   0.0126984
        k(   55) = (   0.2000000   1.0000510   0.2142857), wk =   0.0063492
        k(   56) = (   0.2000000   1.1515739   0.4285714), wk =   0.0063492
        k(   57) = (   0.2000000   1.3030968   0.6428571), wk =   0.0063492
        k(   58) = (   0.2000000   0.3939595  -0.6428571), wk =   0.0063492
        k(   59) = (   0.2000000   0.5454824  -0.4285714), wk =   0.0063492
        k(   60) = (   0.2000000   0.6970053  -0.2142857), wk =   0.0063492
        k(   61) = (   0.2000000   1.0842304   0.0000000), wk =   0.0126984
        k(   62) = (   0.2000000   1.2357533   0.2142857), wk =   0.0063492
        k(   63) = (   0.2000000   1.3872762   0.4285714), wk =   0.0063492
        k(   64) = (   0.2000000   1.5387990   0.6428571), wk =   0.0063492
        k(   65) = (   0.2000000   0.6296618  -0.6428571), wk =   0.0063492
        k(   66) = (   0.2000000   0.7811846  -0.4285714), wk =   0.0063492
        k(   67) = (   0.2000000   0.9327075  -0.2142857), wk =   0.0063492
        k(   68) = (   0.2000000  -0.8013877   0.0000000), wk =   0.0126984
        k(   69) = (   0.2000000  -0.6498648   0.2142857), wk =   0.0063492
        k(   70) = (   0.2000000  -0.4983419   0.4285714), wk =   0.0063492
        k(   71) = (   0.2000000  -0.3468190   0.6428571), wk =   0.0063492
        k(   72) = (   0.2000000  -1.2559563  -0.6428571), wk =   0.0063492
        k(   73) = (   0.2000000  -1.1044334  -0.4285714), wk =   0.0063492
        k(   74) = (   0.2000000  -0.9529106  -0.2142857), wk =   0.0063492
        k(   75) = (   0.2000000  -0.5656854   0.0000000), wk =   0.0126984
        k(   76) = (   0.2000000  -0.4141625   0.2142857), wk =   0.0063492
        k(   77) = (   0.2000000  -0.2626397   0.4285714), wk =   0.0063492
        k(   78) = (   0.2000000  -0.1111168   0.6428571), wk =   0.0063492
        k(   79) = (   0.2000000  -1.0202541  -0.6428571), wk =   0.0063492
        k(   80) = (   0.2000000  -0.8687312  -0.4285714), wk =   0.0063492
        k(   81) = (   0.2000000  -0.7172083  -0.2142857), wk =   0.0063492
        k(   82) = (   0.2000000  -0.3299832   0.0000000), wk =   0.0126984
        k(   83) = (   0.2000000  -0.1784603   0.2142857), wk =   0.0063492
        k(   84) = (   0.2000000  -0.0269374   0.4285714), wk =   0.0063492
        k(   85) = (   0.2000000   0.1245855   0.6428571), wk =   0.0063492
        k(   86) = (   0.2000000  -0.7845518  -0.6428571), wk =   0.0063492
        k(   87) = (   0.2000000  -0.6330289  -0.4285714), wk =   0.0063492
        k(   88) = (   0.2000000  -0.4815060  -0.2142857), wk =   0.0063492
        k(   89) = (   0.2000000  -0.0942809   0.0000000), wk =   0.0126984
        k(   90) = (   0.2000000   0.0572420   0.2142857), wk =   0.0063492
        k(   91) = (   0.2000000   0.2087649   0.4285714), wk =   0.0063492
        k(   92) = (   0.2000000   0.3602877   0.6428571), wk =   0.0063492
        k(   93) = (   0.2000000  -0.5488495  -0.6428571), wk =   0.0063492
        k(   94) = (   0.2000000  -0.3973267  -0.4285714), wk =   0.0063492
        k(   95) = (   0.2000000  -0.2458038  -0.2142857), wk =   0.0063492
        k(   96) = (   0.4000000   0.2828427   0.0000000), wk =   0.0126984
        k(   97) = (   0.4000000   0.4343656   0.2142857), wk =   0.0063492
        k(   98) = (   0.4000000   0.5858885   0.4285714), wk =   0.0063492
        k(   99) = (   0.4000000   0.7374114   0.6428571), wk =   0.0063492
        k(  100) = (   0.4000000  -0.1717259  -0.6428571), wk =   0.0063492
        k(  101) = (   0.4000000  -0.0202031  -0.4285714), wk =   0.0063492
        k(  102) = (   0.4000000   0.1313198  -0.2142857), wk =   0.0063492
        k(  103) = (   0.4000000   0.5185450   0.0000000), wk =   0.0126984
        k(  104) = (   0.4000000   0.6700679   0.2142857), wk =   0.0063492
        k(  105) = (   0.4000000   0.8215907   0.4285714), wk =   0.0063492
        k(  106) = (   0.4000000   0.9731136   0.6428571), wk =   0.0063492
        k(  107) = (   0.4000000   0.0639763  -0.6428571), wk =   0.0063492
        k(  108) = (   0.4000000   0.2154992  -0.4285714), wk =   0.0063492
        k(  109) = (   0.4000000   0.3670221  -0.2142857), wk =   0.0063492
        k(  110) = (   0.4000000   0.7542472   0.0000000), wk =   0.0126984
        k(  111) = (   0.4000000   0.9057701   0.2142857), wk =   0.0063492
        k(  112) = (   0.4000000   1.0572930   0.4285714), wk =   0.0063492
        k(  113) = (   0.4000000   1.2088159   0.6428571), wk =   0.0063492
        k(  114) = (   0.4000000   0.2996786  -0.6428571), wk =   0.0063492
        k(  115) = (   0.4000000   0.4512015  -0.4285714), wk =   0.0063492
        k(  116) = (   0.4000000   0.6027244  -0.2142857), wk =   0.0063492
        k(  117) = (   0.4000000   0.9899495   0.0000000), wk =   0.0126984
        k(  118) = (   0.4000000   1.1414724   0.2142857), wk =   0.0063492
        k(  119) = (   0.4000000   1.2929953   0.4285714), wk =   0.0063492
        k(  120) = (   0.4000000   1.4445181   0.6428571), wk =   0.0063492
        k(  121) = (   0.4000000   0.5353808  -0.6428571), wk =   0.0063492
        k(  122) = (   0.4000000   0.6869037  -0.4285714), wk =   0.0063492
        k(  123) = (   0.4000000   0.8384266  -0.2142857), wk =   0.0063492
        k(  124) = (   0.4000000   1.2256518   0.0000000), wk =   0.0126984
        k(  125) = (   0.4000000   1.3771746   0.2142857), wk =   0.0063492
        k(  126) = (   0.4000000   1.5286975   0.4285714), wk =   0.0063492
        k(  127) = (   0.4000000   1.6802204   0.6428571), wk =   0.0063492
        k(  128) = (   0.4000000   0.7710831  -0.6428571), wk =   0.0063492
        k(  129) = (   0.4000000   0.9226060  -0.4285714), wk =   0.0063492
        k(  130) = (   0.4000000   1.0741289  -0.2142857), wk =   0.0063492
        k(  131) = (   0.4000000  -0.6599663   0.0000000), wk =   0.0126984
        k(  132) = (   0.4000000  -0.5084434   0.2142857), wk =   0.0063492
        k(  133) = (   0.4000000  -0.3569206   0.4285714), wk =   0.0063492
        k(  134) = (   0.4000000  -0.2053977   0.6428571), wk =   0.0063492
        k(  135) = (   0.4000000  -1.1145350  -0.6428571), wk =   0.0063492
        k(  136) = (   0.4000000  -0.9630121  -0.4285714), wk =   0.0063492
        k(  137) = (   0.4000000  -0.8114892  -0.2142857), wk =   0.0063492
        k(  138) = (   0.4000000  -0.4242641   0.0000000), wk =   0.0126984
        k(  139) = (   0.4000000  -0.2727412   0.2142857), wk =   0.0063492
        k(  140) = (   0.4000000  -0.1212183   0.4285714), wk =   0.0063492
        k(  141) = (   0.4000000   0.0303046   0.6428571), wk =   0.0063492
        k(  142) = (   0.4000000  -0.8788327  -0.6428571), wk =   0.0063492
        k(  143) = (   0.4000000  -0.7273098  -0.4285714), wk =   0.0063492
        k(  144) = (   0.4000000  -0.5757870  -0.2142857), wk =   0.0063492
        k(  145) = (   0.4000000  -0.1885618   0.0000000), wk =   0.0126984
        k(  146) = (   0.4000000  -0.0370389   0.2142857), wk =   0.0063492
        k(  147) = (   0.4000000   0.1144840   0.4285714), wk =   0.0063492
        k(  148) = (   0.4000000   0.2660068   0.6428571), wk =   0.0063492
        k(  149) = (   0.4000000  -0.6431305  -0.6428571), wk =   0.0063492
        k(  150) = (   0.4000000  -0.4916076  -0.4285714), wk =   0.0063492
        k(  151) = (   0.4000000  -0.3400847  -0.2142857), wk =   0.0063492
        k(  152) = (   0.4000000   0.0471405   0.0000000), wk =   0.0126984
        k(  153) = (   0.4000000   0.1986633   0.2142857), wk =   0.0063492
        k(  154) = (   0.4000000   0.3501862   0.4285714), wk =   0.0063492
        k(  155) = (   0.4000000   0.5017091   0.6428571), wk =   0.0063492
        k(  156) = (   0.4000000  -0.4074282  -0.6428571), wk =   0.0063492
        k(  157) = (   0.4000000  -0.2559053  -0.4285714), wk =   0.0063492
        k(  158) = (   0.4000000  -0.1043824  -0.2142857), wk =   0.0063492
        k(  159) = (   0.0000000  -0.1515229   0.2142857), wk =   0.0063492
        k(  160) = (   0.0000000  -0.3030458   0.4285714), wk =   0.0063492
        k(  161) = (   0.0000000  -0.4545686   0.6428571), wk =   0.0063492
        k(  162) = (   0.0000000  -0.3872251   0.2142857), wk =   0.0063492
        k(  163) = (   0.0000000  -0.5387480   0.4285714), wk =   0.0063492
        k(  164) = (   0.0000000  -0.6902709   0.6428571), wk =   0.0063492
        k(  165) = (   0.0000000   0.2188664  -0.6428571), wk =   0.0063492
        k(  166) = (   0.0000000   0.0673435  -0.4285714), wk =   0.0063492
        k(  167) = (   0.0000000  -0.0841794  -0.2142857), wk =   0.0063492
        k(  168) = (   0.0000000  -0.6229274   0.2142857), wk =   0.0063492
        k(  169) = (   0.0000000  -0.7744503   0.4285714), wk =   0.0063492
        k(  170) = (   0.0000000  -0.9259732   0.6428571), wk =   0.0063492
        k(  171) = (   0.0000000  -0.0168359  -0.6428571), wk =   0.0063492
        k(  172) = (   0.0000000  -0.1683588  -0.4285714), wk =   0.0063492
        k(  173) = (   0.0000000  -0.3198816  -0.2142857), wk =   0.0063492
        k(  174) = (   0.0000000  -0.8586297   0.2142857), wk =   0.0063492
        k(  175) = (   0.0000000  -1.0101525   0.4285714), wk =   0.0063492
        k(  176) = (   0.0000000  -1.1616754   0.6428571), wk =   0.0063492
        k(  177) = (   0.0000000  -0.2525381  -0.6428571), wk =   0.0063492
        k(  178) = (   0.0000000  -0.4040610  -0.4285714), wk =   0.0063492
        k(  179) = (   0.0000000  -0.5555839  -0.2142857), wk =   0.0063492
        k(  180) = (   0.0000000  -1.0943319   0.2142857), wk =   0.0063492
        k(  181) = (   0.0000000  -1.2458548   0.4285714), wk =   0.0063492
        k(  182) = (   0.0000000  -1.3973777   0.6428571), wk =   0.0063492
        k(  183) = (   0.0000000  -0.4882404  -0.6428571), wk =   0.0063492
        k(  184) = (   0.0000000  -0.6397633  -0.4285714), wk =   0.0063492
        k(  185) = (   0.0000000  -0.7912862  -0.2142857), wk =   0.0063492
        k(  186) = (  -0.2000000  -0.2929442   0.2142857), wk =   0.0063492
        k(  187) = (  -0.2000000  -0.4444671   0.4285714), wk =   0.0063492
        k(  188) = (  -0.2000000  -0.5959900   0.6428571), wk =   0.0063492
        k(  189) = (  -0.2000000   0.3131473  -0.6428571), wk =   0.0063492
        k(  190) = (  -0.2000000   0.1616244  -0.4285714), wk =   0.0063492
        k(  191) = (  -0.2000000   0.0101015  -0.2142857), wk =   0.0063492
        k(  192) = (  -0.2000000  -0.5286465   0.2142857), wk =   0.0063492
        k(  193) = (  -0.2000000  -0.6801694   0.4285714), wk =   0.0063492
        k(  194) = (  -0.2000000  -0.8316923   0.6428571), wk =   0.0063492
        k(  195) = (  -0.2000000   0.0774450  -0.6428571), wk =   0.0063492
        k(  196) = (  -0.2000000  -0.0740779  -0.4285714), wk =   0.0063492
        k(  197) = (  -0.2000000  -0.2256007  -0.2142857), wk =   0.0063492
        k(  198) = (  -0.2000000  -0.7643488   0.2142857), wk =   0.0063492
        k(  199) = (  -0.2000000  -0.9158716   0.4285714), wk =   0.0063492
        k(  200) = (  -0.2000000  -1.0673945   0.6428571), wk =   0.0063492
        k(  201) = (  -0.2000000  -0.1582572  -0.6428571), wk =   0.0063492
        k(  202) = (  -0.2000000  -0.3097801  -0.4285714), wk =   0.0063492
        k(  203) = (  -0.2000000  -0.4613030  -0.2142857), wk =   0.0063492
        k(  204) = (  -0.2000000  -1.0000510   0.2142857), wk =   0.0063492
        k(  205) = (  -0.2000000  -1.1515739   0.4285714), wk =   0.0063492
        k(  206) = (  -0.2000000  -1.3030968   0.6428571), wk =   0.0063492
        k(  207) = (  -0.2000000  -0.3939595  -0.6428571), wk =   0.0063492
        k(  208) = (  -0.2000000  -0.5454824  -0.4285714), wk =   0.0063492
        k(  209) = (  -0.2000000  -0.6970053  -0.2142857), wk =   0.0063492
        k(  210) = (  -0.2000000  -1.2357533   0.2142857), wk =   0.0063492
        k(  211) = (  -0.2000000  -1.3872762   0.4285714), wk =   0.0063492
        k(  212) = (  -0.2000000  -1.5387990   0.6428571), wk =   0.0063492
        k(  213) = (  -0.2000000  -0.6296618  -0.6428571), wk =   0.0063492
        k(  214) = (  -0.2000000  -0.7811846  -0.4285714), wk =   0.0063492
        k(  215) = (  -0.2000000  -0.9327075  -0.2142857), wk =   0.0063492
        k(  216) = (  -0.2000000   0.6498648   0.2142857), wk =   0.0063492
        k(  217) = (  -0.2000000   0.4983419   0.4285714), wk =   0.0063492
        k(  218) = (  -0.2000000   0.3468190   0.6428571), wk =   0.0063492
        k(  219) = (  -0.2000000   1.2559563  -0.6428571), wk =   0.0063492
        k(  220) = (  -0.2000000   1.1044334  -0.4285714), wk =   0.0063492
        k(  221) = (  -0.2000000   0.9529106  -0.2142857), wk =   0.0063492
        k(  222) = (  -0.2000000   0.4141625   0.2142857), wk =   0.0063492
        k(  223) = (  -0.2000000   0.2626397   0.4285714), wk =   0.0063492
        k(  224) = (  -0.2000000   0.1111168   0.6428571), wk =   0.0063492
        k(  225) = (  -0.2000000   1.0202541  -0.6428571), wk =   0.0063492
        k(  226) = (  -0.2000000   0.8687312  -0.4285714), wk =   0.0063492
        k(  227) = (  -0.2000000   0.7172083  -0.2142857), wk =   0.0063492
        k(  228) = (  -0.2000000   0.1784603   0.2142857), wk =   0.0063492
        k(  229) = (  -0.2000000   0.0269374   0.4285714), wk =   0.0063492
        k(  230) = (  -0.2000000  -0.1245855   0.6428571), wk =   0.0063492
        k(  231) = (  -0.2000000   0.7845518  -0.6428571), wk =   0.0063492
        k(  232) = (  -0.2000000   0.6330289  -0.4285714), wk =   0.0063492
        k(  233) = (  -0.2000000   0.4815060  -0.2142857), wk =   0.0063492
        k(  234) = (  -0.2000000  -0.0572420   0.2142857), wk =   0.0063492
        k(  235) = (  -0.2000000  -0.2087649   0.4285714), wk =   0.0063492
        k(  236) = (  -0.2000000  -0.3602877   0.6428571), wk =   0.0063492
        k(  237) = (  -0.2000000   0.5488495  -0.6428571), wk =   0.0063492
        k(  238) = (  -0.2000000   0.3973267  -0.4285714), wk =   0.0063492
        k(  239) = (  -0.2000000   0.2458038  -0.2142857), wk =   0.0063492
        k(  240) = (  -0.4000000  -0.4343656   0.2142857), wk =   0.0063492
        k(  241) = (  -0.4000000  -0.5858885   0.4285714), wk =   0.0063492
        k(  242) = (  -0.4000000  -0.7374114   0.6428571), wk =   0.0063492
        k(  243) = (  -0.4000000   0.1717259  -0.6428571), wk =   0.0063492
        k(  244) = (  -0.4000000   0.0202031  -0.4285714), wk =   0.0063492
        k(  245) = (  -0.4000000  -0.1313198  -0.2142857), wk =   0.0063492
        k(  246) = (  -0.4000000  -0.6700679   0.2142857), wk =   0.0063492
        k(  247) = (  -0.4000000  -0.8215907   0.4285714), wk =   0.0063492
        k(  248) = (  -0.4000000  -0.9731136   0.6428571), wk =   0.0063492
        k(  249) = (  -0.4000000  -0.0639763  -0.6428571), wk =   0.0063492
        k(  250) = (  -0.4000000  -0.2154992  -0.4285714), wk =   0.0063492
        k(  251) = (  -0.4000000  -0.3670221  -0.2142857), wk =   0.0063492
        k(  252) = (  -0.4000000  -0.9057701   0.2142857), wk =   0.0063492
        k(  253) = (  -0.4000000  -1.0572930   0.4285714), wk =   0.0063492
        k(  254) = (  -0.4000000  -1.2088159   0.6428571), wk =   0.0063492
        k(  255) = (  -0.4000000  -0.2996786  -0.6428571), wk =   0.0063492
        k(  256) = (  -0.4000000  -0.4512015  -0.4285714), wk =   0.0063492
        k(  257) = (  -0.4000000  -0.6027244  -0.2142857), wk =   0.0063492
        k(  258) = (  -0.4000000  -1.1414724   0.2142857), wk =   0.0063492
        k(  259) = (  -0.4000000  -1.2929953   0.4285714), wk =   0.0063492
        k(  260) = (  -0.4000000  -1.4445181   0.6428571), wk =   0.0063492
        k(  261) = (  -0.4000000  -0.5353808  -0.6428571), wk =   0.0063492
        k(  262) = (  -0.4000000  -0.6869037  -0.4285714), wk =   0.0063492
        k(  263) = (  -0.4000000  -0.8384266  -0.2142857), wk =   0.0063492
        k(  264) = (  -0.4000000  -1.3771746   0.2142857), wk =   0.0063492
        k(  265) = (  -0.4000000  -1.5286975   0.4285714), wk =   0.0063492
        k(  266) = (  -0.4000000  -1.6802204   0.6428571), wk =   0.0063492
        k(  267) = (  -0.4000000  -0.7710831  -0.6428571), wk =   0.0063492
        k(  268) = (  -0.4000000  -0.9226060  -0.4285714), wk =   0.0063492
        k(  269) = (  -0.4000000  -1.0741289  -0.2142857), wk =   0.0063492
        k(  270) = (  -0.4000000   0.5084434   0.2142857), wk =   0.0063492
        k(  271) = (  -0.4000000   0.3569206   0.4285714), wk =   0.0063492
        k(  272) = (  -0.4000000   0.2053977   0.6428571), wk =   0.0063492
        k(  273) = (  -0.4000000   1.1145350  -0.6428571), wk =   0.0063492
        k(  274) = (  -0.4000000   0.9630121  -0.4285714), wk =   0.0063492
        k(  275) = (  -0.4000000   0.8114892  -0.2142857), wk =   0.0063492
        k(  276) = (  -0.4000000   0.2727412   0.2142857), wk =   0.0063492
        k(  277) = (  -0.4000000   0.1212183   0.4285714), wk =   0.0063492
        k(  278) = (  -0.4000000  -0.0303046   0.6428571), wk =   0.0063492
        k(  279) = (  -0.4000000   0.8788327  -0.6428571), wk =   0.0063492
        k(  280) = (  -0.4000000   0.7273098  -0.4285714), wk =   0.0063492
        k(  281) = (  -0.4000000   0.5757870  -0.2142857), wk =   0.0063492
        k(  282) = (  -0.4000000   0.0370389   0.2142857), wk =   0.0063492
        k(  283) = (  -0.4000000  -0.1144840   0.4285714), wk =   0.0063492
        k(  284) = (  -0.4000000  -0.2660068   0.6428571), wk =   0.0063492
        k(  285) = (  -0.4000000   0.6431305  -0.6428571), wk =   0.0063492
        k(  286) = (  -0.4000000   0.4916076  -0.4285714), wk =   0.0063492
        k(  287) = (  -0.4000000   0.3400847  -0.2142857), wk =   0.0063492
        k(  288) = (  -0.4000000  -0.1986633   0.2142857), wk =   0.0063492
        k(  289) = (  -0.4000000  -0.3501862   0.4285714), wk =   0.0063492
        k(  290) = (  -0.4000000  -0.5017091   0.6428571), wk =   0.0063492
        k(  291) = (  -0.4000000   0.4074282  -0.6428571), wk =   0.0063492
        k(  292) = (  -0.4000000   0.2559053  -0.4285714), wk =   0.0063492
        k(  293) = (  -0.4000000   0.1043824  -0.2142857), wk =   0.0063492

                       cryst. coord.
        k(    1) = (   0.0000000   0.0000000   0.0000000), wk =   0.0063492
        k(    2) = (   0.0000000   0.0000000   0.1428571), wk =   0.0063492
        k(    3) = (   0.0000000   0.0000000   0.2857143), wk =   0.0063492
        k(    4) = (   0.0000000  -0.0000000   0.4285714), wk =   0.0063492
        k(    5) = (   0.0000000   0.1111111   0.0000000), wk =   0.0126984
        k(    6) = (   0.0000000   0.1111111   0.1428571), wk =   0.0063492
        k(    7) = (   0.0000000   0.1111111   0.2857143), wk =   0.0063492
        k(    8) = (   0.0000000   0.1111111   0.4285714), wk =   0.0063492
        k(    9) = (   0.0000000   0.1111111  -0.4285714), wk =   0.0063492
        k(   10) = (   0.0000000   0.1111111  -0.2857143), wk =   0.0063492
        k(   11) = (   0.0000000   0.1111111  -0.1428571), wk =   0.0063492
        k(   12) = (   0.0000000   0.2222222   0.0000000), wk =   0.0126984
        k(   13) = (   0.0000000   0.2222222   0.1428571), wk =   0.0063492
        k(   14) = (   0.0000000   0.2222222   0.2857143), wk =   0.0063492
        k(   15) = (   0.0000000   0.2222222   0.4285714), wk =   0.0063492
        k(   16) = (   0.0000000   0.2222222  -0.4285714), wk =   0.0063492
        k(   17) = (   0.0000000   0.2222222  -0.2857143), wk =   0.0063492
        k(   18) = (   0.0000000   0.2222222  -0.1428571), wk =   0.0063492
        k(   19) = (   0.0000000   0.3333333   0.0000000), wk =   0.0126984
        k(   20) = (   0.0000000   0.3333333   0.1428571), wk =   0.0063492
        k(   21) = (   0.0000000   0.3333333   0.2857143), wk =   0.0063492
        k(   22) = (   0.0000000   0.3333333   0.4285714), wk =   0.0063492
        k(   23) = (   0.0000000   0.3333333  -0.4285714), wk =   0.0063492
        k(   24) = (   0.0000000   0.3333333  -0.2857143), wk =   0.0063492
        k(   25) = (   0.0000000   0.3333333  -0.1428571), wk =   0.0063492
        k(   26) = (   0.0000000   0.4444444   0.0000000), wk =   0.0126984
        k(   27) = (   0.0000000   0.4444444   0.1428571), wk =   0.0063492
        k(   28) = (   0.0000000   0.4444444   0.2857143), wk =   0.0063492
        k(   29) = (   0.0000000   0.4444444   0.4285714), wk =   0.0063492
        k(   30) = (   0.0000000   0.4444444  -0.4285714), wk =   0.0063492
        k(   31) = (   0.0000000   0.4444444  -0.2857143), wk =   0.0063492
        k(   32) = (   0.0000000   0.4444444  -0.1428571), wk =   0.0063492
        k(   33) = (   0.2000000   0.0000000   0.0000000), wk =   0.0126984
        k(   34) = (   0.2000000   0.0000000   0.1428571), wk =   0.0063492
        k(   35) = (   0.2000000  -0.0000000   0.2857143), wk =   0.0063492
        k(   36) = (   0.2000000  -0.0000000   0.4285714), wk =   0.0063492
        k(   37) = (   0.2000000  -0.0000000  -0.4285714), wk =   0.0063492
        k(   38) = (   0.2000000  -0.0000000  -0.2857143), wk =   0.0063492
        k(   39) = (   0.2000000  -0.0000000  -0.1428571), wk =   0.0063492
        k(   40) = (   0.2000000   0.1111111   0.0000000), wk =   0.0126984
        k(   41) = (   0.2000000   0.1111111   0.1428571), wk =   0.0063492
        k(   42) = (   0.2000000   0.1111111   0.2857143), wk =   0.0063492
        k(   43) = (   0.2000000   0.1111111   0.4285714), wk =   0.0063492
        k(   44) = (   0.2000000   0.1111111  -0.4285714), wk =   0.0063492
        k(   45) = (   0.2000000   0.1111111  -0.2857143), wk =   0.0063492
        k(   46) = (   0.2000000   0.1111111  -0.1428571), wk =   0.0063492
        k(   47) = (   0.2000000   0.2222222   0.0000000), wk =   0.0126984
        k(   48) = (   0.2000000   0.2222222   0.1428571), wk =   0.0063492
        k(   49) = (   0.2000000   0.2222222   0.2857143), wk =   0.0063492
        k(   50) = (   0.2000000   0.2222222   0.4285714), wk =   0.0063492
        k(   51) = (   0.2000000   0.2222222  -0.4285714), wk =   0.0063492
        k(   52) = (   0.2000000   0.2222222  -0.2857143), wk =   0.0063492
        k(   53) = (   0.2000000   0.2222222  -0.1428571), wk =   0.0063492
        k(   54) = (   0.2000000   0.3333333   0.0000000), wk =   0.0126984
        k(   55) = (   0.2000000   0.3333333   0.1428571), wk =   0.0063492
        k(   56) = (   0.2000000   0.3333333   0.2857143), wk =   0.0063492
        k(   57) = (   0.2000000   0.3333333   0.4285714), wk =   0.0063492
        k(   58) = (   0.2000000   0.3333333  -0.4285714), wk =   0.0063492
        k(   59) = (   0.2000000   0.3333333  -0.2857143), wk =   0.0063492
        k(   60) = (   0.2000000   0.3333333  -0.1428571), wk =   0.0063492
        k(   61) = (   0.2000000   0.4444444   0.0000000), wk =   0.0126984
        k(   62) = (   0.2000000   0.4444444   0.1428571), wk =   0.0063492
        k(   63) = (   0.2000000   0.4444444   0.2857143), wk =   0.0063492
        k(   64) = (   0.2000000   0.4444444   0.4285714), wk =   0.0063492
        k(   65) = (   0.2000000   0.4444444  -0.4285714), wk =   0.0063492
        k(   66) = (   0.2000000   0.4444444  -0.2857143), wk =   0.0063492
        k(   67) = (   0.2000000   0.4444444  -0.1428571), wk =   0.0063492
        k(   68) = (   0.2000000  -0.4444444   0.0000000), wk =   0.0126984
        k(   69) = (   0.2000000  -0.4444444   0.1428571), wk =   0.0063492
        k(   70) = (   0.2000000  -0.4444444   0.2857143), wk =   0.0063492
        k(   71) = (   0.2000000  -0.4444444   0.4285714), wk =   0.0063492
        k(   72) = (   0.2000000  -0.4444444  -0.4285714), wk =   0.0063492
        k(   73) = (   0.2000000  -0.4444444  -0.2857143), wk =   0.0063492
        k(   74) = (   0.2000000  -0.4444444  -0.1428571), wk =   0.0063492
        k(   75) = (   0.2000000  -0.3333333   0.0000000), wk =   0.0126984
        k(   76) = (   0.2000000  -0.3333333   0.1428571), wk =   0.0063492
        k(   77) = (   0.2000000  -0.3333333   0.2857143), wk =   0.0063492
        k(   78) = (   0.2000000  -0.3333333   0.4285714), wk =   0.0063492
        k(   79) = (   0.2000000  -0.3333333  -0.4285714), wk =   0.0063492
        k(   80) = (   0.2000000  -0.3333333  -0.2857143), wk =   0.0063492
        k(   81) = (   0.2000000  -0.3333333  -0.1428571), wk =   0.0063492
        k(   82) = (   0.2000000  -0.2222222   0.0000000), wk =   0.0126984
        k(   83) = (   0.2000000  -0.2222222   0.1428571), wk =   0.0063492
        k(   84) = (   0.2000000  -0.2222222   0.2857143), wk =   0.0063492
        k(   85) = (   0.2000000  -0.2222222   0.4285714), wk =   0.0063492
        k(   86) = (   0.2000000  -0.2222222  -0.4285714), wk =   0.0063492
        k(   87) = (   0.2000000  -0.2222222  -0.2857143), wk =   0.0063492
        k(   88) = (   0.2000000  -0.2222222  -0.1428571), wk =   0.0063492
        k(   89) = (   0.2000000  -0.1111111   0.0000000), wk =   0.0126984
        k(   90) = (   0.2000000  -0.1111111   0.1428571), wk =   0.0063492
        k(   91) = (   0.2000000  -0.1111111   0.2857143), wk =   0.0063492
        k(   92) = (   0.2000000  -0.1111111   0.4285714), wk =   0.0063492
        k(   93) = (   0.2000000  -0.1111111  -0.4285714), wk =   0.0063492
        k(   94) = (   0.2000000  -0.1111111  -0.2857143), wk =   0.0063492
        k(   95) = (   0.2000000  -0.1111111  -0.1428571), wk =   0.0063492
        k(   96) = (   0.4000000   0.0000000   0.0000000), wk =   0.0126984
        k(   97) = (   0.4000000  -0.0000000   0.1428571), wk =   0.0063492
        k(   98) = (   0.4000000   0.0000000   0.2857143), wk =   0.0063492
        k(   99) = (   0.4000000  -0.0000000   0.4285714), wk =   0.0063492
        k(  100) = (   0.4000000  -0.0000000  -0.4285714), wk =   0.0063492
        k(  101) = (   0.4000000  -0.0000000  -0.2857143), wk =   0.0063492
        k(  102) = (   0.4000000  -0.0000000  -0.1428571), wk =   0.0063492
        k(  103) = (   0.4000000   0.1111111   0.0000000), wk =   0.0126984
        k(  104) = (   0.4000000   0.1111111   0.1428571), wk =   0.0063492
        k(  105) = (   0.4000000   0.1111111   0.2857143), wk =   0.0063492
        k(  106) = (   0.4000000   0.1111111   0.4285714), wk =   0.0063492
        k(  107) = (   0.4000000   0.1111111  -0.4285714), wk =   0.0063492
        k(  108) = (   0.4000000   0.1111111  -0.2857143), wk =   0.0063492
        k(  109) = (   0.4000000   0.1111111  -0.1428571), wk =   0.0063492
        k(  110) = (   0.4000000   0.2222222   0.0000000), wk =   0.0126984
        k(  111) = (   0.4000000   0.2222222   0.1428571), wk =   0.0063492
        k(  112) = (   0.4000000   0.2222222   0.2857143), wk =   0.0063492
        k(  113) = (   0.4000000   0.2222222   0.4285714), wk =   0.0063492
        k(  114) = (   0.4000000   0.2222222  -0.4285714), wk =   0.0063492
        k(  115) = (   0.4000000   0.2222222  -0.2857143), wk =   0.0063492
        k(  116) = (   0.4000000   0.2222222  -0.1428571), wk =   0.0063492
        k(  117) = (   0.4000000   0.3333333   0.0000000), wk =   0.0126984
        k(  118) = (   0.4000000   0.3333333   0.1428571), wk =   0.0063492
        k(  119) = (   0.4000000   0.3333333   0.2857143), wk =   0.0063492
        k(  120) = (   0.4000000   0.3333333   0.4285714), wk =   0.0063492
        k(  121) = (   0.4000000   0.3333333  -0.4285714), wk =   0.0063492
        k(  122) = (   0.4000000   0.3333333  -0.2857143), wk =   0.0063492
        k(  123) = (   0.4000000   0.3333333  -0.1428571), wk =   0.0063492
        k(  124) = (   0.4000000   0.4444444   0.0000000), wk =   0.0126984
        k(  125) = (   0.4000000   0.4444444   0.1428571), wk =   0.0063492
        k(  126) = (   0.4000000   0.4444444   0.2857143), wk =   0.0063492
        k(  127) = (   0.4000000   0.4444444   0.4285714), wk =   0.0063492
        k(  128) = (   0.4000000   0.4444444  -0.4285714), wk =   0.0063492
        k(  129) = (   0.4000000   0.4444444  -0.2857143), wk =   0.0063492
        k(  130) = (   0.4000000   0.4444444  -0.1428571), wk =   0.0063492
        k(  131) = (   0.4000000  -0.4444444   0.0000000), wk =   0.0126984
        k(  132) = (   0.4000000  -0.4444444   0.1428571), wk =   0.0063492
        k(  133) = (   0.4000000  -0.4444444   0.2857143), wk =   0.0063492
        k(  134) = (   0.4000000  -0.4444444   0.4285714), wk =   0.0063492
        k(  135) = (   0.4000000  -0.4444444  -0.4285714), wk =   0.0063492
        k(  136) = (   0.4000000  -0.4444444  -0.2857143), wk =   0.0063492
        k(  137) = (   0.4000000  -0.4444444  -0.1428571), wk =   0.0063492
        k(  138) = (   0.4000000  -0.3333333   0.0000000), wk =   0.0126984
        k(  139) = (   0.4000000  -0.3333333   0.1428571), wk =   0.0063492
        k(  140) = (   0.4000000  -0.3333333   0.2857143), wk =   0.0063492
        k(  141) = (   0.4000000  -0.3333333   0.4285714), wk =   0.0063492
        k(  142) = (   0.4000000  -0.3333333  -0.4285714), wk =   0.0063492
        k(  143) = (   0.4000000  -0.3333333  -0.2857143), wk =   0.0063492
        k(  144) = (   0.4000000  -0.3333333  -0.1428571), wk =   0.0063492
        k(  145) = (   0.4000000  -0.2222222   0.0000000), wk =   0.0126984
        k(  146) = (   0.4000000  -0.2222222   0.1428571), wk =   0.0063492
        k(  147) = (   0.4000000  -0.2222222   0.2857143), wk =   0.0063492
        k(  148) = (   0.4000000  -0.2222222   0.4285714), wk =   0.0063492
        k(  149) = (   0.4000000  -0.2222222  -0.4285714), wk =   0.0063492
        k(  150) = (   0.4000000  -0.2222222  -0.2857143), wk =   0.0063492
        k(  151) = (   0.4000000  -0.2222222  -0.1428571), wk =   0.0063492
        k(  152) = (   0.4000000  -0.1111111   0.0000000), wk =   0.0126984
        k(  153) = (   0.4000000  -0.1111111   0.1428571), wk =   0.0063492
        k(  154) = (   0.4000000  -0.1111111   0.2857143), wk =   0.0063492
        k(  155) = (   0.4000000  -0.1111111   0.4285714), wk =   0.0063492
        k(  156) = (   0.4000000  -0.1111111  -0.4285714), wk =   0.0063492
        k(  157) = (   0.4000000  -0.1111111  -0.2857143), wk =   0.0063492
        k(  158) = (   0.4000000  -0.1111111  -0.1428571), wk =   0.0063492
        k(  159) = (   0.0000000  -0.1428571   0.1428571), wk =   0.0063492
        k(  160) = (   0.0000000  -0.2857143   0.2857143), wk =   0.0063492
        k(  161) = (   0.0000000  -0.4285714   0.4285714), wk =   0.0063492
        k(  162) = (   0.0000000  -0.2539683   0.1428571), wk =   0.0063492
        k(  163) = (   0.0000000  -0.3968254   0.2857143), wk =   0.0063492
        k(  164) = (   0.0000000  -0.5396825   0.4285714), wk =   0.0063492
        k(  165) = (   0.0000000   0.3174603  -0.4285714), wk =   0.0063492
        k(  166) = (   0.0000000   0.1746032  -0.2857143), wk =   0.0063492
        k(  167) = (   0.0000000   0.0317460  -0.1428571), wk =   0.0063492
        k(  168) = (   0.0000000  -0.3650794   0.1428571), wk =   0.0063492
        k(  169) = (   0.0000000  -0.5079365   0.2857143), wk =   0.0063492
        k(  170) = (   0.0000000  -0.6507937   0.4285714), wk =   0.0063492
        k(  171) = (   0.0000000   0.2063492  -0.4285714), wk =   0.0063492
        k(  172) = (   0.0000000   0.0634921  -0.2857143), wk =   0.0063492
        k(  173) = (   0.0000000  -0.0793651  -0.1428571), wk =   0.0063492
        k(  174) = (   0.0000000  -0.4761905   0.1428571), wk =   0.0063492
        k(  175) = (   0.0000000  -0.6190476   0.2857143), wk =   0.0063492
        k(  176) = (   0.0000000  -0.7619048   0.4285714), wk =   0.0063492
        k(  177) = (   0.0000000   0.0952381  -0.4285714), wk =   0.0063492
        k(  178) = (   0.0000000  -0.0476190  -0.2857143), wk =   0.0063492
        k(  179) = (   0.0000000  -0.1904762  -0.1428571), wk =   0.0063492
        k(  180) = (   0.0000000  -0.5873016   0.1428571), wk =   0.0063492
        k(  181) = (   0.0000000  -0.7301587   0.2857143), wk =   0.0063492
        k(  182) = (   0.0000000  -0.8730159   0.4285714), wk =   0.0063492
        k(  183) = (   0.0000000  -0.0158730  -0.4285714), wk =   0.0063492
        k(  184) = (   0.0000000  -0.1587302  -0.2857143), wk =   0.0063492
        k(  185) = (   0.0000000  -0.3015873  -0.1428571), wk =   0.0063492
        k(  186) = (  -0.2000000  -0.1428571   0.1428571), wk =   0.0063492
        k(  187) = (  -0.2000000  -0.2857143   0.2857143), wk =   0.0063492
        k(  188) = (  -0.2000000  -0.4285714   0.4285714), wk =   0.0063492
        k(  189) = (  -0.2000000   0.4285714  -0.4285714), wk =   0.0063492
        k(  190) = (  -0.2000000   0.2857143  -0.2857143), wk =   0.0063492
        k(  191) = (  -0.2000000   0.1428571  -0.1428571), wk =   0.0063492
        k(  192) = (  -0.2000000  -0.2539683   0.1428571), wk =   0.0063492
        k(  193) = (  -0.2000000  -0.3968254   0.2857143), wk =   0.0063492
        k(  194) = (  -0.2000000  -0.5396825   0.4285714), wk =   0.0063492
        k(  195) = (  -0.2000000   0.3174603  -0.4285714), wk =   0.0063492
        k(  196) = (  -0.2000000   0.1746032  -0.2857143), wk =   0.0063492
        k(  197) = (  -0.2000000   0.0317460  -0.1428571), wk =   0.0063492
        k(  198) = (  -0.2000000  -0.3650794   0.1428571), wk =   0.0063492
        k(  199) = (  -0.2000000  -0.5079365   0.2857143), wk =   0.0063492
        k(  200) = (  -0.2000000  -0.6507937   0.4285714), wk =   0.0063492
        k(  201) = (  -0.2000000   0.2063492  -0.4285714), wk =   0.0063492
        k(  202) = (  -0.2000000   0.0634921  -0.2857143), wk =   0.0063492
        k(  203) = (  -0.2000000  -0.0793651  -0.1428571), wk =   0.0063492
        k(  204) = (  -0.2000000  -0.4761905   0.1428571), wk =   0.0063492
        k(  205) = (  -0.2000000  -0.6190476   0.2857143), wk =   0.0063492
        k(  206) = (  -0.2000000  -0.7619048   0.4285714), wk =   0.0063492
        k(  207) = (  -0.2000000   0.0952381  -0.4285714), wk =   0.0063492
        k(  208) = (  -0.2000000  -0.0476190  -0.2857143), wk =   0.0063492
        k(  209) = (  -0.2000000  -0.1904762  -0.1428571), wk =   0.0063492
        k(  210) = (  -0.2000000  -0.5873016   0.1428571), wk =   0.0063492
        k(  211) = (  -0.2000000  -0.7301587   0.2857143), wk =   0.0063492
        k(  212) = (  -0.2000000  -0.8730159   0.4285714), wk =   0.0063492
        k(  213) = (  -0.2000000  -0.0158730  -0.4285714), wk =   0.0063492
        k(  214) = (  -0.2000000  -0.1587302  -0.2857143), wk =   0.0063492
        k(  215) = (  -0.2000000  -0.3015873  -0.1428571), wk =   0.0063492
        k(  216) = (  -0.2000000   0.3015873   0.1428571), wk =   0.0063492
        k(  217) = (  -0.2000000   0.1587302   0.2857143), wk =   0.0063492
        k(  218) = (  -0.2000000   0.0158730   0.4285714), wk =   0.0063492
        k(  219) = (  -0.2000000   0.8730159  -0.4285714), wk =   0.0063492
        k(  220) = (  -0.2000000   0.7301587  -0.2857143), wk =   0.0063492
        k(  221) = (  -0.2000000   0.5873016  -0.1428571), wk =   0.0063492
        k(  222) = (  -0.2000000   0.1904762   0.1428571), wk =   0.0063492
        k(  223) = (  -0.2000000   0.0476190   0.2857143), wk =   0.0063492
        k(  224) = (  -0.2000000  -0.0952381   0.4285714), wk =   0.0063492
        k(  225) = (  -0.2000000   0.7619048  -0.4285714), wk =   0.0063492
        k(  226) = (  -0.2000000   0.6190476  -0.2857143), wk =   0.0063492
        k(  227) = (  -0.2000000   0.4761905  -0.1428571), wk =   0.0063492
        k(  228) = (  -0.2000000   0.0793651   0.1428571), wk =   0.0063492
        k(  229) = (  -0.2000000  -0.0634921   0.2857143), wk =   0.0063492
        k(  230) = (  -0.2000000  -0.2063492   0.4285714), wk =   0.0063492
        k(  231) = (  -0.2000000   0.6507937  -0.4285714), wk =   0.0063492
        k(  232) = (  -0.2000000   0.5079365  -0.2857143), wk =   0.0063492
        k(  233) = (  -0.2000000   0.3650794  -0.1428571), wk =   0.0063492
        k(  234) = (  -0.2000000  -0.0317460   0.1428571), wk =   0.0063492
        k(  235) = (  -0.2000000  -0.1746032   0.2857143), wk =   0.0063492
        k(  236) = (  -0.2000000  -0.3174603   0.4285714), wk =   0.0063492
        k(  237) = (  -0.2000000   0.5396825  -0.4285714), wk =   0.0063492
        k(  238) = (  -0.2000000   0.3968254  -0.2857143), wk =   0.0063492
        k(  239) = (  -0.2000000   0.2539683  -0.1428571), wk =   0.0063492
        k(  240) = (  -0.4000000  -0.1428571   0.1428571), wk =   0.0063492
        k(  241) = (  -0.4000000  -0.2857143   0.2857143), wk =   0.0063492
        k(  242) = (  -0.4000000  -0.4285714   0.4285714), wk =   0.0063492
        k(  243) = (  -0.4000000   0.4285714  -0.4285714), wk =   0.0063492
        k(  244) = (  -0.4000000   0.2857143  -0.2857143), wk =   0.0063492
        k(  245) = (  -0.4000000   0.1428571  -0.1428571), wk =   0.0063492
        k(  246) = (  -0.4000000  -0.2539683   0.1428571), wk =   0.0063492
        k(  247) = (  -0.4000000  -0.3968254   0.2857143), wk =   0.0063492
        k(  248) = (  -0.4000000  -0.5396825   0.4285714), wk =   0.0063492
        k(  249) = (  -0.4000000   0.3174603  -0.4285714), wk =   0.0063492
        k(  250) = (  -0.4000000   0.1746032  -0.2857143), wk =   0.0063492
        k(  251) = (  -0.4000000   0.0317460  -0.1428571), wk =   0.0063492
        k(  252) = (  -0.4000000  -0.3650794   0.1428571), wk =   0.0063492
        k(  253) = (  -0.4000000  -0.5079365   0.2857143), wk =   0.0063492
        k(  254) = (  -0.4000000  -0.6507937   0.4285714), wk =   0.0063492
        k(  255) = (  -0.4000000   0.2063492  -0.4285714), wk =   0.0063492
        k(  256) = (  -0.4000000   0.0634921  -0.2857143), wk =   0.0063492
        k(  257) = (  -0.4000000  -0.0793651  -0.1428571), wk =   0.0063492
        k(  258) = (  -0.4000000  -0.4761905   0.1428571), wk =   0.0063492
        k(  259) = (  -0.4000000  -0.6190476   0.2857143), wk =   0.0063492
        k(  260) = (  -0.4000000  -0.7619048   0.4285714), wk =   0.0063492
        k(  261) = (  -0.4000000   0.0952381  -0.4285714), wk =   0.0063492
        k(  262) = (  -0.4000000  -0.0476190  -0.2857143), wk =   0.0063492
        k(  263) = (  -0.4000000  -0.1904762  -0.1428571), wk =   0.0063492
        k(  264) = (  -0.4000000  -0.5873016   0.1428571), wk =   0.0063492
        k(  265) = (  -0.4000000  -0.7301587   0.2857143), wk =   0.0063492
        k(  266) = (  -0.4000000  -0.8730159   0.4285714), wk =   0.0063492
        k(  267) = (  -0.4000000  -0.0158730  -0.4285714), wk =   0.0063492
        k(  268) = (  -0.4000000  -0.1587302  -0.2857143), wk =   0.0063492
        k(  269) = (  -0.4000000  -0.3015873  -0.1428571), wk =   0.0063492
        k(  270) = (  -0.4000000   0.3015873   0.1428571), wk =   0.0063492
        k(  271) = (  -0.4000000   0.1587302   0.2857143), wk =   0.0063492
        k(  272) = (  -0.4000000   0.0158730   0.4285714), wk =   0.0063492
        k(  273) = (  -0.4000000   0.8730159  -0.4285714), wk =   0.0063492
        k(  274) = (  -0.4000000   0.7301587  -0.2857143), wk =   0.0063492
        k(  275) = (  -0.4000000   0.5873016  -0.1428571), wk =   0.0063492
        k(  276) = (  -0.4000000   0.1904762   0.1428571), wk =   0.0063492
        k(  277) = (  -0.4000000   0.0476190   0.2857143), wk =   0.0063492
        k(  278) = (  -0.4000000  -0.0952381   0.4285714), wk =   0.0063492
        k(  279) = (  -0.4000000   0.7619048  -0.4285714), wk =   0.0063492
        k(  280) = (  -0.4000000   0.6190476  -0.2857143), wk =   0.0063492
        k(  281) = (  -0.4000000   0.4761905  -0.1428571), wk =   0.0063492
        k(  282) = (  -0.4000000   0.0793651   0.1428571), wk =   0.0063492
        k(  283) = (  -0.4000000  -0.0634921   0.2857143), wk =   0.0063492
        k(  284) = (  -0.4000000  -0.2063492   0.4285714), wk =   0.0063492
        k(  285) = (  -0.4000000   0.6507937  -0.4285714), wk =   0.0063492
        k(  286) = (  -0.4000000   0.5079365  -0.2857143), wk =   0.0063492
        k(  287) = (  -0.4000000   0.3650794  -0.1428571), wk =   0.0063492
        k(  288) = (  -0.4000000  -0.0317460   0.1428571), wk =   0.0063492
        k(  289) = (  -0.4000000  -0.1746032   0.2857143), wk =   0.0063492
        k(  290) = (  -0.4000000  -0.3174603   0.4285714), wk =   0.0063492
        k(  291) = (  -0.4000000   0.5396825  -0.4285714), wk =   0.0063492
        k(  292) = (  -0.4000000   0.3968254  -0.2857143), wk =   0.0063492
        k(  293) = (  -0.4000000   0.2539683  -0.1428571), wk =   0.0063492

     Dense  grid:  1122861 G-vectors     FFT dimensions: ( 192, 128, 128)

     Smooth grid:   397029 G-vectors     FFT dimensions: ( 135,  90,  90)

     Estimated max dynamical RAM per process >     140.12MB

     Estimated total allocated dynamical RAM >  143481.31MB

     Initial potential from superposition of free atoms

     starting charge  191.52609, renormalised to  192.00000
     Starting wfc are  204 randomized atomic wfcs

     total cpu time spent up to now is       25.7 secs

     per-process dynamical memory:   142.7 Mb

     Self-consistent Calculation

     iteration #  1     ecut=    45.00 Ry     beta=0.35
     Davidson diagonalization with overlap
     ethr =  1.00E-02,  avg # of iterations =  3.0

     Threshold (ethr) on eigenvalues was too large:
     Diagonalizing with lowered threshold

     Davidson diagonalization with overlap
     ethr =  2.85E-04,  avg # of iterations =  3.6

     total cpu time spent up to now is       82.2 secs

     total energy              =   -1547.20460562 Ry
     Harris-Foulkes estimate   =   -1547.40104406 Ry
     estimated scf accuracy    <       0.51972026 Ry

     iteration #  2     ecut=    45.00 Ry     beta=0.35
     Davidson diagonalization with overlap
     ethr =  2.71E-04,  avg # of iterations =  3.1

     total cpu time spent up to now is      114.5 secs

     total energy              =   -1547.34416917 Ry
     Harris-Foulkes estimate   =   -1547.36288778 Ry
     estimated scf accuracy    <       0.09797608 Ry

     iteration #  3     ecut=    45.00 Ry     beta=0.35
     Davidson diagonalization with overlap
     ethr =  5.10E-05,  avg # of iterations =  8.6

     total cpu time spent up to now is      159.8 secs

     total energy              =   -1547.36121502 Ry
     Harris-Foulkes estimate   =   -1547.35480235 Ry
     estimated scf accuracy    <       0.01855583 Ry

     iteration #  4     ecut=    45.00 Ry     beta=0.35
     Davidson diagonalization with overlap
     ethr =  9.66E-06,  avg # of iterations =  6.4

     total cpu time spent up to now is      204.0 secs

     total energy              =   -1547.36566802 Ry
     Harris-Foulkes estimate   =   -1547.36215847 Ry
     estimated scf accuracy    <       0.00471319 Ry

     iteration #  5     ecut=    45.00 Ry     beta=0.35
     Davidson diagonalization with overlap
     ethr =  2.45E-06,  avg # of iterations =  9.7

     total cpu time spent up to now is      253.4 secs

     total energy              =   -1547.36634097 Ry
     Harris-Foulkes estimate   =   -1547.36612105 Ry
     estimated scf accuracy    <       0.00020308 Ry

     iteration #  6     ecut=    45.00 Ry     beta=0.35
     Davidson diagonalization with overlap
     ethr =  1.06E-07,  avg # of iterations =  3.5

     total cpu time spent up to now is      292.1 secs

     total energy              =   -1547.36642755 Ry
     Harris-Foulkes estimate   =   -1547.36640339 Ry
     estimated scf accuracy    <       0.00001883 Ry

     iteration #  7     ecut=    45.00 Ry     beta=0.35
     Davidson diagonalization with overlap
     ethr =  9.81E-09,  avg # of iterations =  4.1

     total cpu time spent up to now is      328.6 secs

     total energy              =   -1547.36644496 Ry
     Harris-Foulkes estimate   =   -1547.36643433 Ry
     estimated scf accuracy    <       0.00000466 Ry

     iteration #  8     ecut=    45.00 Ry     beta=0.35
     Davidson diagonalization with overlap
     ethr =  2.43E-09,  avg # of iterations =  3.6

     total cpu time spent up to now is      363.3 secs

     total energy              =   -1547.36644884 Ry
     Harris-Foulkes estimate   =   -1547.36644648 Ry
     estimated scf accuracy    <       0.00000042 Ry

     iteration #  9     ecut=    45.00 Ry     beta=0.35
     Davidson diagonalization with overlap
     ethr =  2.18E-10,  avg # of iterations =  4.8

     total cpu time spent up to now is      403.3 secs

     End of self-consistent calculation

          k = 0.0000 0.0000 0.0000 ( 49643 PWs)   bands (ev):

   -18.9986 -18.9958 -18.9892 -18.9707 -18.9525 -18.9462 -18.9136 -18.8799
   -18.8740 -18.8555 -18.8517 -18.8419  -9.2603  -9.2193  -9.2072  -9.1883
    -9.1788  -9.1653  -9.1397  -9.1168  -9.1083  -9.0745  -9.0381  -9.0193
    -5.8970  -5.8746  -5.8705  -5.8577  -5.8490  -5.8263  -5.8188  -5.8161
    -5.8113  -5.8013  -5.7986  -5.7944  -5.7874  -5.7817  -5.7799  -5.7725
    -5.7720  -5.7626  -5.7508  -5.7450  -5.7390  -5.7202  -5.7136  -5.7089
    -5.7027  -5.6997  -5.6910  -5.6903  -5.6845  -5.6777  -5.6709  -5.6683
    -5.6637  -5.6530  -5.6519  -5.6457   0.2846   0.2870   0.4048   0.4232
     0.4359   0.4561   0.6443   0.6674   0.6800   0.6855   0.6933   0.7033
     0.7082   0.7178   0.7399   0.7463   0.7622   0.7700   0.7816   0.7896
     0.7916   0.8111   0.8194   0.8299   0.8393   0.8623   0.8770   0.8826
     0.8957   0.9218   0.9399   0.9619   0.9738   1.0537   1.0615   1.0694
     4.9238   5.5472   5.8466   5.8657   5.8931   5.9072   6.4260   6.4488
     6.6179   6.6482   6.7139   6.7186   6.7216   6.8588   6.8775   6.8828
     6.9389   6.9901   7.0399

     occupation numbers 
     1.0000   1.0000   1.0000   1.0000   1.0000   1.0000   1.0000   1.0000
     1.0000   1.0000   1.0000   1.0000   1.0000   1.0000   1.0000   1.0000
     1.0000   1.0000   1.0000   1.0000   1.0000   1.0000   1.0000   1.0000
     1.0000   1.0000   1.0000   1.0000   1.0000   1.0000   1.0000   1.0000
     1.0000   1.0000   1.0000   1.0000   1.0000   1.0000   1.0000   1.0000
     1.0000   1.0000   1.0000   1.0000   1.0000   1.0000   1.0000   1.0000
     1.0000   1.0000   1.0000   1.0000   1.0000   1.0000   1.0000   1.0000
     1.0000   1.0000   1.0000   1.0000   1.0000   1.0000   1.0000   1.0000
     1.0000   1.0000   1.0000   1.0000   1.0000   1.0000   1.0000   1.0000
     1.0000   1.0000   1.0000   1.0000   1.0000   1.0000   1.0000   1.0000
     1.0000   1.0000   1.0000   1.0000   1.0000   1.0000   1.0000   1.0000
     1.0000   1.0000   1.0000   1.0000   1.0000   1.0000   1.0000   1.0000
     0.0000   0.0000   0.0000   0.0000   0.0000   0.0000   0.0000   0.0000
     0.0000   0.0000   0.0000   0.0000   0.0000   0.0000   0.0000   0.0000
     0.0000   0.0000   0.0000

          k = 0.0000 0.1515 0.2143 ( 49677 PWs)   bands (ev):

   -18.9986 -18.9958 -18.9892 -18.9707 -18.9525 -18.9462 -18.9136 -18.8799
   -18.8740 -18.8555 -18.8517 -18.8420  -9.2600  -9.2175  -9.2065  -9.1881
    -9.1781  -9.1661  -9.1387  -9.1178  -9.1095  -9.0752  -9.0385  -9.0200
    -5.8907  -5.8790  -5.8702  -5.8508  -5.8401  -5.8299  -5.8197  -5.8186
    -5.8124  -5.8025  -5.8002  -5.7951  -5.7861  -5.7825  -5.7775  -5.7738
    -5.7701  -5.7637  -5.7516  -5.7468  -5.7397  -5.7199  -5.7139  -5.7090
    -5.7021  -5.6989  -5.6923  -5.6914  -5.6848  -5.6788  -5.6706  -5.6668
    -5.6628  -5.6556  -5.6528  -5.6486   0.3110   0.3151   0.3937   0.4037
     0.4679   0.4838   0.6112   0.6345   0.6599   0.6931   0.6976   0.7110
     0.7188   0.7243   0.7422   0.7472   0.7604   0.7717   0.7782   0.7886
     0.7938   0.8071   0.8193   0.8338   0.8421   0.8454   0.8781   0.8954
     0.9152   0.9333   0.9385   0.9488   0.9706   1.0200   1.0424   1.0500
     5.0270   5.6099   5.7462   5.8916   5.9848   6.1137   6.3201   6.5503
     6.6344   6.6806   6.7000   6.7080   6.7378   6.7609   6.7809   6.7888
     6.8575   6.9173   6.9393

     occupation numbers 
     1.0000   1.0000   1.0000   1.0000   1.0000   1.0000   1.0000   1.0000
     1.0000   1.0000   1.0000   1.0000   1.0000   1.0000   1.0000   1.0000
     1.0000   1.0000   1.0000   1.0000   1.0000   1.0000   1.0000   1.0000
     1.0000   1.0000   1.0000   1.0000   1.0000   1.0000   1.0000   1.0000
     1.0000   1.0000   1.0000   1.0000   1.0000   1.0000   1.0000   1.0000
     1.0000   1.0000   1.0000   1.0000   1.0000   1.0000   1.0000   1.0000
     1.0000   1.0000   1.0000   1.0000   1.0000   1.0000   1.0000   1.0000
     1.0000   1.0000   1.0000   1.0000   1.0000   1.0000   1.0000   1.0000
     1.0000   1.0000   1.0000   1.0000   1.0000   1.0000   1.0000   1.0000
     1.0000   1.0000   1.0000   1.0000   1.0000   1.0000   1.0000   1.0000
     1.0000   1.0000   1.0000   1.0000   1.0000   1.0000   1.0000   1.0000
     1.0000   1.0000   1.0000   1.0000   1.0000   1.0000   1.0000   1.0000
     0.0000   0.0000   0.0000   0.0000   0.0000   0.0000   0.0000   0.0000
     0.0000   0.0000   0.0000   0.0000   0.0000   0.0000   0.0000   0.0000
     0.0000   0.0000   0.0000

          k = 0.0000 0.3030 0.4286 ( 49631 PWs)   bands (ev):

   -18.9985 -18.9958 -18.9893 -18.9706 -18.9525 -18.9462 -18.9136 -18.8798
   -18.8740 -18.8554 -18.8518 -18.8420  -9.2593  -9.2130  -9.2048  -9.1883
    -9.1764  -9.1683  -9.1360  -9.1200  -9.1126  -9.0767  -9.0397  -9.0216
    -5.8800  -5.8743  -5.8637  -5.8410  -5.8381  -5.8303  -5.8252  -5.8220
    -5.8170  -5.8024  -5.8011  -5.7967  -5.7864  -5.7834  -5.7776  -5.7730
    -5.7699  -5.7649  -5.7519  -5.7483  -5.7387  -5.7199  -5.7149  -5.7087
    -5.7021  -5.6991  -5.6942  -5.6901  -5.6845  -5.6786  -5.6709  -5.6685
    -5.6653  -5.6594  -5.6551  -5.6537   0.3770   0.3899   0.4031   0.4093
     0.5083   0.5224   0.5535   0.5781   0.5991   0.6849   0.7006   0.7041
     0.7166   0.7360   0.7477   0.7598   0.7726   0.7760   0.7828   0.7932
     0.7987   0.8149   0.8214   0.8319   0.8408   0.8568   0.8768   0.8849
     0.8982   0.9127   0.9291   0.9476   0.9727   0.9804   1.0021   1.0111
     5.3132   5.7305   5.7941   6.0307   6.1769   6.2276   6.4040   6.4131
     6.4426   6.5458   6.6691   6.6810   6.7143   6.7303   6.7647   6.8218
     6.8917   6.9055   6.9633

     occupation numbers 
     1.0000   1.0000   1.0000   1.0000   1.0000   1.0000   1.0000   1.0000
     1.0000   1.0000   1.0000   1.0000   1.0000   1.0000   1.0000   1.0000
     1.0000   1.0000   1.0000   1.0000   1.0000   1.0000   1.0000   1.0000
     1.0000   1.0000   1.0000   1.0000   1.0000   1.0000   1.0000   1.0000
     1.0000   1.0000   1.0000   1.0000   1.0000   1.0000   1.0000   1.0000
     1.0000   1.0000   1.0000   1.0000   1.0000   1.0000   1.0000   1.0000
     1.0000   1.0000   1.0000   1.0000   1.0000   1.0000   1.0000   1.0000
     1.0000   1.0000   1.0000   1.0000   1.0000   1.0000   1.0000   1.0000
     1.0000   1.0000   1.0000   1.0000   1.0000   1.0000   1.0000   1.0000
     1.0000   1.0000   1.0000   1.0000   1.0000   1.0000   1.0000   1.0000
     1.0000   1.0000   1.0000   1.0000   1.0000   1.0000   1.0000   1.0000
     1.0000   1.0000   1.0000   1.0000   1.0000   1.0000   1.0000   1.0000
     0.0000   0.0000   0.0000   0.0000   0.0000   0.0000   0.0000   0.0000
     0.0000   0.0000   0.0000   0.0000   0.0000   0.0000   0.0000   0.0000
     0.0000   0.0000   0.0000

          k = 0.0000 0.4546 0.6429 ( 49620 PWs)   bands (ev):

   -18.9985 -18.9958 -18.9893 -18.9706 -18.9525 -18.9462 -18.9136 -18.8798
   -18.8740 -18.8554 -18.8518 -18.8420  -9.2587  -9.2086  -9.2031  -9.1898
    -9.1745  -9.1703  -9.1333  -9.1213  -9.1162  -9.0779  -9.0407  -9.0228
    -5.8731  -5.8595  -5.8511  -5.8424  -5.8399  -5.8367  -5.8307  -5.8268
    -5.8170  -5.8052  -5.7979  -5.7941  -5.7932  -5.7840  -5.7801  -5.7711
    -5.7691  -5.7661  -5.7505  -5.7466  -5.7359  -5.7191  -5.7144  -5.7106
    -5.7042  -5.7005  -5.6918  -5.6877  -5.6841  -5.6779  -5.6751  -5.6711
    -5.6688  -5.6633  -5.6579  -5.6546   0.4191   0.4233   0.4758   0.4879
     0.5027   0.5235   0.5421   0.5669   0.5897   0.6167   0.6570   0.6804
     0.7054   0.7113   0.7553   0.7613   0.7743   0.7757   0.7923   0.8000
     0.8081   0.8129   0.8218   0.8407   0.8445   0.8589   0.8666   0.8801
     0.8871   0.9148   0.9225   0.9412   0.9633   0.9715   0.9791   0.9807
     5.7234   5.8359   6.0466   6.0716   6.1676   6.2269   6.2608   6.2787
     6.4169   6.4827   6.5966   6.6766   6.7099   6.7422   6.7836   6.8008
     6.8373   6.9018   6.9726

     occupation numbers 
     1.0000   1.0000   1.0000   1.0000   1.0000   1.0000   1.0000   1.0000
     1.0000   1.0000   1.0000   1.0000   1.0000   1.0000   1.0000   1.0000
     1.0000   1.0000   1.0000   1.0000   1.0000   1.0000   1.0000   1.0000
     1.0000   1.0000   1.0000   1.0000   1.0000   1.0000   1.0000   1.0000
     1.0000   1.0000   1.0000   1.0000   1.0000   1.0000   1.0000   1.0000
     1.0000   1.0000   1.0000   1.0000   1.0000   1.0000   1.0000   1.0000
     1.0000   1.0000   1.0000   1.0000   1.0000   1.0000   1.0000   1.0000
     1.0000   1.0000   1.0000   1.0000   1.0000   1.0000   1.0000   1.0000
     1.0000   1.0000   1.0000   1.0000   1.0000   1.0000   1.0000   1.0000
     1.0000   1.0000   1.0000   1.0000   1.0000   1.0000   1.0000   1.0000
     1.0000   1.0000   1.0000   1.0000   1.0000   1.0000   1.0000   1.0000
     1.0000   1.0000   1.0000   1.0000   1.0000   1.0000   1.0000   1.0000
     0.0000   0.0000   0.0000   0.0000   0.0000   0.0000   0.0000   0.0000
     0.0000   0.0000   0.0000   0.0000   0.0000   0.0000   0.0000   0.0000
     0.0000   0.0000   0.0000

          k = 0.0000 0.2357 0.0000 ( 49666 PWs)   bands (ev):

   -18.9986 -18.9958 -18.9892 -18.9707 -18.9525 -18.9462 -18.9136 -18.8799
   -18.8740 -18.8555 -18.8517 -18.8419  -9.2601  -9.2182  -9.2068  -9.1882
    -9.1784  -9.1657  -9.1393  -9.1171  -9.1092  -9.0749  -9.0384  -9.0197
    -5.8864  -5.8743  -5.8710  -5.8544  -5.8468  -5.8336  -5.8218  -5.8180
    -5.8114  -5.8025  -5.7995  -5.7981  -5.7873  -5.7830  -5.7775  -5.7730
    -5.7692  -5.7623  -5.7509  -5.7448  -5.7388  -5.7201  -5.7149  -5.7075
    -5.7024  -5.7000  -5.6915  -5.6899  -5.6849  -5.6781  -5.6706  -5.6673
    -5.6626  -5.6545  -5.6531  -5.6468   0.3043   0.3081   0.3799   0.3870
     0.4818   0.5042   0.6244   0.6373   0.6734   0.6816   0.6927   0.7092
     0.7164   0.7181   0.7403   0.7472   0.7554   0.7644   0.7714   0.7847
     0.7889   0.8058   0.8158   0.8257   0.8442   0.8606   0.8875   0.8937
     0.9003   0.9386   0.9451   0.9629   0.9748   1.0182   1.0510   1.0614
     5.0053   5.5705   5.7555   5.7603   6.1052   6.1116   6.2518   6.5717
     6.5989   6.6506   6.6685   6.7591   6.7807   6.7956   6.8169   6.8475
     6.8579   6.9119   6.9186

     occupation numbers 
     1.0000   1.0000   1.0000   1.0000   1.0000   1.0000   1.0000   1.0000
     1.0000   1.0000   1.0000   1.0000   1.0000   1.0000   1.0000   1.0000
     1.0000   1.0000   1.0000   1.0000   1.0000   1.0000   1.0000   1.0000
     1.0000   1.0000   1.0000   1.0000   1.0000   1.0000   1.0000   1.0000
     1.0000   1.0000   1.0000   1.0000   1.0000   1.0000   1.0000   1.0000
     1.0000   1.0000   1.0000   1.0000   1.0000   1.0000   1.0000   1.0000
     1.0000   1.0000   1.0000   1.0000   1.0000   1.0000   1.0000   1.0000
     1.0000   1.0000   1.0000   1.0000   1.0000   1.0000   1.0000   1.0000
     1.0000   1.0000   1.0000   1.0000   1.0000   1.0000   1.0000   1.0000
     1.0000   1.0000   1.0000   1.0000   1.0000   1.0000   1.0000   1.0000
     1.0000   1.0000   1.0000   1.0000   1.0000   1.0000   1.0000   1.0000
     1.0000   1.0000   1.0000   1.0000   1.0000   1.0000   1.0000   1.0000
     0.0000   0.0000   0.0000   0.0000   0.0000   0.0000   0.0000   0.0000
     0.0000   0.0000   0.0000   0.0000   0.0000   0.0000   0.0000   0.0000
     0.0000   0.0000   0.0000

          k = 0.0000 0.3872 0.2143 ( 49657 PWs)   bands (ev):

   -18.9986 -18.9958 -18.9892 -18.9706 -18.9525 -18.9462 -18.9136 -18.8799
   -18.8740 -18.8555 -18.8517 -18.8420  -9.2596  -9.2153  -9.2057  -9.1881
    -9.1773  -9.1671  -9.1376  -9.1185  -9.1112  -9.0760  -9.0390  -9.0210
    -5.8802  -5.8705  -5.8628  -5.8518  -5.8417  -5.8348  -5.8261  -5.8176
    -5.8113  -5.8058  -5.8024  -5.7991  -5.7866  -5.7835  -5.7761  -5.7753
    -5.7709  -5.7638  -5.7512  -5.7469  -5.7391  -5.7200  -5.7171  -5.7065
    -5.7029  -5.6998  -5.6938  -5.6901  -5.6835  -5.6774  -5.6707  -5.6669
    -5.6621  -5.6583  -5.6542  -5.6498   0.3503   0.3583   0.3821   0.3871
     0.5191   0.5306   0.5731   0.5865   0.6392   0.6698   0.6950   0.7124
     0.7186   0.7310   0.7418   0.7524   0.7634   0.7702   0.7743   0.7885
     0.7919   0.8101   0.8202   0.8332   0.8418   0.8479   0.8858   0.8935
     0.9129   0.9204   0.9469   0.9647   0.9691   0.9770   1.0213   1.0396
     5.1973   5.6608   5.7042   5.8555   6.1402   6.2847   6.3874   6.5593
     6.5800   6.6061   6.6406   6.6540   6.6672   6.6836   6.7662   6.8505
     6.8876   6.9004   7.0430

     occupation numbers 
     1.0000   1.0000   1.0000   1.0000   1.0000   1.0000   1.0000   1.0000
     1.0000   1.0000   1.0000   1.0000   1.0000   1.0000   1.0000   1.0000
     1.0000   1.0000   1.0000   1.0000   1.0000   1.0000   1.0000   1.0000
     1.0000   1.0000   1.0000   1.0000   1.0000   1.0000   1.0000   1.0000
     1.0000   1.0000   1.0000   1.0000   1.0000   1.0000   1.0000   1.0000
     1.0000   1.0000   1.0000   1.0000   1.0000   1.0000   1.0000   1.0000
     1.0000   1.0000   1.0000   1.0000   1.0000   1.0000   1.0000   1.0000
     1.0000   1.0000   1.0000   1.0000   1.0000   1.0000   1.0000   1.0000
     1.0000   1.0000   1.0000   1.0000   1.0000   1.0000   1.0000   1.0000
     1.0000   1.0000   1.0000   1.0000   1.0000   1.0000   1.0000   1.0000
     1.0000   1.0000   1.0000   1.0000   1.0000   1.0000   1.0000   1.0000
     1.0000   1.0000   1.0000   1.0000   1.0000   1.0000   1.0000   1.0000
     0.0000   0.0000   0.0000   0.0000   0.0000   0.0000   0.0000   0.0000
     0.0000   0.0000   0.0000   0.0000   0.0000   0.0000   0.0000   0.0000
     0.0000   0.0000   0.0000

          k = 0.0000 0.5387 0.4286 ( 49612 PWs)   bands (ev):

   -18.9985 -18.9958 -18.9893 -18.9706 -18.9525 -18.9462 -18.9136 -18.8798
   -18.8740 -18.8554 -18.8518 -18.8420  -9.2589  -9.2106  -9.2039  -9.1890
    -9.1753  -9.1694  -9.1346  -9.1205  -9.1147  -9.0774  -9.0402  -9.0224
    -5.8790  -5.8599  -5.8543  -5.8453  -5.8402  -5.8303  -5.8276  -5.8214
    -5.8159  -5.8055  -5.8031  -5.7972  -5.7877  -5.7838  -5.7784  -5.7751
    -5.7717  -5.7667  -5.7507  -5.7486  -5.7379  -5.7205  -5.7175  -5.7085
    -5.7034  -5.7025  -5.6915  -5.6899  -5.6826  -5.6764  -5.6720  -5.6696
    -5.6683  -5.6573  -5.6565  -5.6547   0.4050   0.4086   0.4463   0.4589
     0.5082   0.5183   0.5414   0.5647   0.5980   0.6176   0.6890   0.7038
     0.7099   0.7250   0.7487   0.7575   0.7638   0.7838   0.7861   0.7902
     0.8039   0.8133   0.8253   0.8365   0.8445   0.8642   0.8732   0.8844
     0.8893   0.9085   0.9318   0.9519   0.9619   0.9769   0.9821   0.9986
     5.5418   5.7659   5.8713   6.0591   6.0929   6.2478   6.3741   6.4599
     6.5398   6.5761   6.5941   6.6831   6.7050   6.7461   6.7637   6.7936
     6.8646   6.8961   6.9186

     occupation numbers 
     1.0000   1.0000   1.0000   1.0000   1.0000   1.0000   1.0000   1.0000
     1.0000   1.0000   1.0000   1.0000   1.0000   1.0000   1.0000   1.0000
     1.0000   1.0000   1.0000   1.0000   1.0000   1.0000   1.0000   1.0000
     1.0000   1.0000   1.0000   1.0000   1.0000   1.0000   1.0000   1.0000
     1.0000   1.0000   1.0000   1.0000   1.0000   1.0000   1.0000   1.0000
     1.0000   1.0000   1.0000   1.0000   1.0000   1.0000   1.0000   1.0000
     1.0000   1.0000   1.0000   1.0000   1.0000   1.0000   1.0000   1.0000
     1.0000   1.0000   1.0000   1.0000   1.0000   1.0000   1.0000   1.0000
     1.0000   1.0000   1.0000   1.0000   1.0000   1.0000   1.0000   1.0000
     1.0000   1.0000   1.0000   1.0000   1.0000   1.0000   1.0000   1.0000
     1.0000   1.0000   1.0000   1.0000   1.0000   1.0000   1.0000   1.0000
     1.0000   1.0000   1.0000   1.0000   1.0000   1.0000   1.0000   1.0000
     0.0000   0.0000   0.0000   0.0000   0.0000   0.0000   0.0000   0.0000
     0.0000   0.0000   0.0000   0.0000   0.0000   0.0000   0.0000   0.0000
     0.0000   0.0000   0.0000

          k = 0.0000 0.6903 0.6429 ( 49606 PWs)   bands (ev):

   -18.9985 -18.9958 -18.9893 -18.9706 -18.9525 -18.9462 -18.9136 -18.8798
   -18.8740 -18.8554 -18.8518 -18.8420  -9.2586  -9.2074  -9.2026  -9.1906
    -9.1740  -9.1707  -9.1325  -9.1214  -9.1173  -9.0781  -9.0410  -9.0230
    -5.8709  -5.8607  -5.8473  -5.8432  -5.8422  -5.8390  -5.8285  -5.8248
    -5.8171  -5.8044  -5.7982  -5.7939  -5.7927  -5.7830  -5.7801  -5.7716
    -5.7695  -5.7659  -5.7509  -5.7467  -5.7359  -5.7197  -5.7153  -5.7112
    -5.7045  -5.7007  -5.6948  -5.6862  -5.6827  -5.6777  -5.6753  -5.6713
    -5.6683  -5.6652  -5.6584  -5.6551   0.4404   0.4460   0.4727   0.4794
     0.5280   0.5343   0.5611   0.5700   0.5865   0.5993   0.6126   0.6349
     0.7099   0.7158   0.7571   0.7660   0.7749   0.7797   0.7913   0.8063
     0.8111   0.8163   0.8247   0.8403   0.8484   0.8522   0.8674   0.8798
     0.8901   0.9086   0.9218   0.9442   0.9533   0.9637   0.9721   0.9862
     5.9346   5.9558   5.9726   6.0052   6.1267   6.1688   6.3488   6.3548
     6.3926   6.4544   6.5520   6.6568   6.6737   6.7010   6.7853   6.8292
     6.8412   6.8872   6.8947

     occupation numbers 
     1.0000   1.0000   1.0000   1.0000   1.0000   1.0000   1.0000   1.0000
     1.0000   1.0000   1.0000   1.0000   1.0000   1.0000   1.0000   1.0000
     1.0000   1.0000   1.0000   1.0000   1.0000   1.0000   1.0000   1.0000
     1.0000   1.0000   1.0000   1.0000   1.0000   1.0000   1.0000   1.0000
     1.0000   1.0000   1.0000   1.0000   1.0000   1.0000   1.0000   1.0000
     1.0000   1.0000   1.0000   1.0000   1.0000   1.0000   1.0000   1.0000
     1.0000   1.0000   1.0000   1.0000   1.0000   1.0000   1.0000   1.0000
     1.0000   1.0000   1.0000   1.0000   1.0000   1.0000   1.0000   1.0000
     1.0000   1.0000   1.0000   1.0000   1.0000   1.0000   1.0000   1.0000
     1.0000   1.0000   1.0000   1.0000   1.0000   1.0000   1.0000   1.0000
     1.0000   1.0000   1.0000   1.0000   1.0000   1.0000   1.0000   1.0000
     1.0000   1.0000   1.0000   1.0000   1.0000   1.0000   1.0000   1.0000
     0.0000   0.0000   0.0000   0.0000   0.0000   0.0000   0.0000   0.0000
     0.0000   0.0000   0.0000   0.0000   0.0000   0.0000   0.0000   0.0000
     0.0000   0.0000   0.0000

          k = 0.0000-0.2189-0.6429 ( 49617 PWs)   bands (ev):

   -18.9985 -18.9958 -18.9893 -18.9706 -18.9525 -18.9462 -18.9135 -18.8799
   -18.8740 -18.8554 -18.8518 -18.8420  -9.2588  -9.2094  -9.2037  -9.1894
    -9.1752  -9.1695  -9.1335  -9.1215  -9.1154  -9.0776  -9.0407  -9.0224
    -5.8744  -5.8716  -5.8592  -5.8409  -5.8382  -5.8328  -5.8281  -5.8209
    -5.8165  -5.8019  -5.7975  -5.7945  -5.7919  -5.7842  -5.7777  -5.7709
    -5.7690  -5.7637  -5.7522  -5.7463  -5.7365  -5.7202  -5.7140  -5.7102
    -5.7033  -5.6993  -5.6952  -5.6877  -5.6840  -5.6796  -5.6728  -5.6707
    -5.6684  -5.6638  -5.6596  -5.6545   0.4155   0.4246   0.4476   0.4606
     0.5003   0.5211   0.5415   0.5617   0.5687   0.6525   0.6833   0.7082
     0.7142   0.7342   0.7599   0.7692   0.7740   0.7820   0.7869   0.7990
     0.8045   0.8071   0.8185   0.8230   0.8349   0.8480   0.8640   0.8717
     0.8924   0.9051   0.9184   0.9432   0.9660   0.9781   0.9815   1.0019
     5.5322   5.8458   6.0150   6.1584   6.2102   6.2613   6.2913   6.3847
     6.4301   6.4959   6.5308   6.6005   6.6353   6.6586   6.7089   6.8121
     6.8622   6.8817   6.9882

     occupation numbers 
     1.0000   1.0000   1.0000   1.0000   1.0000   1.0000   1.0000   1.0000
     1.0000   1.0000   1.0000   1.0000   1.0000   1.0000   1.0000   1.0000
     1.0000   1.0000   1.0000   1.0000   1.0000   1.0000   1.0000   1.0000
     1.0000   1.0000   1.0000   1.0000   1.0000   1.0000   1.0000   1.0000
     1.0000   1.0000   1.0000   1.0000   1.0000   1.0000   1.0000   1.0000
     1.0000   1.0000   1.0000   1.0000   1.0000   1.0000   1.0000   1.0000
     1.0000   1.0000   1.0000   1.0000   1.0000   1.0000   1.0000   1.0000
     1.0000   1.0000   1.0000   1.0000   1.0000   1.0000   1.0000   1.0000
     1.0000   1.0000   1.0000   1.0000   1.0000   1.0000   1.0000   1.0000
     1.0000   1.0000   1.0000   1.0000   1.0000   1.0000   1.0000   1.0000
     1.0000   1.0000   1.0000   1.0000   1.0000   1.0000   1.0000   1.0000
     1.0000   1.0000   1.0000   1.0000   1.0000   1.0000   1.0000   1.0000
     0.0000   0.0000   0.0000   0.0000   0.0000   0.0000   0.0000   0.0000
     0.0000   0.0000   0.0000   0.0000   0.0000   0.0000   0.0000   0.0000
     0.0000   0.0000   0.0000

          k = 0.0000-0.0673-0.4286 ( 49671 PWs)   bands (ev):

   -18.9985 -18.9958 -18.9893 -18.9706 -18.9525 -18.9462 -18.9135 -18.8799
   -18.8740 -18.8554 -18.8518 -18.8420  -9.2595  -9.2143  -9.2052  -9.1882
    -9.1770  -9.1675  -9.1367  -9.1195  -9.1119  -9.0762  -9.0397  -9.0209
    -5.8889  -5.8772  -5.8717  -5.8372  -5.8337  -5.8306  -5.8236  -5.8183
    -5.8129  -5.8029  -5.7983  -5.7947  -5.7878  -5.7827  -5.7792  -5.7728
    -5.7691  -5.7652  -5.7513  -5.7482  -5.7388  -5.7210  -5.7137  -5.7098
    -5.7026  -5.6996  -5.6932  -5.6899  -5.6853  -5.6805  -5.6713  -5.6687
    -5.6644  -5.6586  -5.6543  -5.6530   0.3534   0.3584   0.4241   0.4303
     0.4643   0.4701   0.5789   0.5923   0.6486   0.6781   0.7063   0.7094
     0.7328   0.7381   0.7487   0.7541   0.7755   0.7773   0.7794   0.7895
     0.7946   0.8129   0.8227   0.8330   0.8463   0.8588   0.8707   0.8845
     0.8992   0.9198   0.9234   0.9358   0.9614   0.9739   1.0185   1.0444
     5.1917   5.7560   5.8218   5.9238   6.1079   6.2007   6.3911   6.5023
     6.5167   6.6181   6.6532   6.6693   6.6826   6.7142   6.7678   6.7913
     6.8042   6.8427   6.9172

     occupation numbers 
     1.0000   1.0000   1.0000   1.0000   1.0000   1.0000   1.0000   1.0000
     1.0000   1.0000   1.0000   1.0000   1.0000   1.0000   1.0000   1.0000
     1.0000   1.0000   1.0000   1.0000   1.0000   1.0000   1.0000   1.0000
     1.0000   1.0000   1.0000   1.0000   1.0000   1.0000   1.0000   1.0000
     1.0000   1.0000   1.0000   1.0000   1.0000   1.0000   1.0000   1.0000
     1.0000   1.0000   1.0000   1.0000   1.0000   1.0000   1.0000   1.0000
     1.0000   1.0000   1.0000   1.0000   1.0000   1.0000   1.0000   1.0000
     1.0000   1.0000   1.0000   1.0000   1.0000   1.0000   1.0000   1.0000
     1.0000   1.0000   1.0000   1.0000   1.0000   1.0000   1.0000   1.0000
     1.0000   1.0000   1.0000   1.0000   1.0000   1.0000   1.0000   1.0000
     1.0000   1.0000   1.0000   1.0000   1.0000   1.0000   1.0000   1.0000
     1.0000   1.0000   1.0000   1.0000   1.0000   1.0000   1.0000   1.0000
     0.0000   0.0000   0.0000   0.0000   0.0000   0.0000   0.0000   0.0000
     0.0000   0.0000   0.0000   0.0000   0.0000   0.0000   0.0000   0.0000
     0.0000   0.0000   0.0000

          k = 0.0000 0.0842-0.2143 ( 49660 PWs)   bands (ev):

   -18.9986 -18.9958 -18.9892 -18.9707 -18.9525 -18.9462 -18.9135 -18.8799
   -18.8740 -18.8555 -18.8517 -18.8420  -9.2600  -9.2178  -9.2066  -9.1882
    -9.1783  -9.1659  -9.1389  -9.1175  -9.1095  -9.0750  -9.0387  -9.0197
    -5.8938  -5.8769  -5.8739  -5.8472  -5.8431  -5.8298  -5.8194  -5.8160
[...]
     1.0000   1.0000   1.0000   1.0000   1.0000   1.0000   1.0000   1.0000
     1.0000   1.0000   1.0000   1.0000   1.0000   1.0000   1.0000   1.0000
     1.0000   1.0000   1.0000   1.0000   1.0000   1.0000   1.0000   1.0000
     1.0000   1.0000   1.0000   1.0000   1.0000   1.0000   1.0000   1.0000
     0.0000   0.0000   0.0000   0.0000   0.0000   0.0000   0.0000   0.0000
     0.0000   0.0000   0.0000   0.0000   0.0000   0.0000   0.0000   0.0000
     0.0000   0.0000   0.0000

          k =-0.4000 0.3401-0.2143 ( 49624 PWs)   bands (ev):

   -18.9986 -18.9957 -18.9892 -18.9706 -18.9525 -18.9462 -18.9135 -18.8799
   -18.8740 -18.8555 -18.8518 -18.8420  -9.2590  -9.2112  -9.2045  -9.1895
    -9.1764  -9.1678  -9.1354  -9.1198  -9.1143  -9.0767  -9.0404  -9.0216
    -5.8760  -5.8700  -5.8685  -5.8485  -5.8402  -5.8369  -5.8192  -5.8163
    -5.8080  -5.8059  -5.8009  -5.7983  -5.7864  -5.7832  -5.7783  -5.7705
    -5.7681  -5.7620  -5.7501  -5.7484  -5.7347  -5.7229  -5.7150  -5.7096
    -5.7066  -5.7018  -5.6949  -5.6907  -5.6838  -5.6783  -5.6746  -5.6705
    -5.6647  -5.6598  -5.6574  -5.6507   0.3924   0.3969   0.4206   0.4246
     0.4932   0.4948   0.5404   0.5806   0.6639   0.6705   0.6949   0.7134
     0.7235   0.7404   0.7447   0.7500   0.7570   0.7739   0.7826   0.7876
     0.8006   0.8142   0.8280   0.8447   0.8500   0.8554   0.8761   0.8846
     0.9004   0.9078   0.9200   0.9364   0.9423   0.9497   0.9981   1.0270
     5.3611   5.8277   6.0506   6.1057   6.1336   6.2831   6.3016   6.3450
     6.4685   6.4733   6.5303   6.5933   6.6128   6.6328   6.7443   6.8087
     6.8799   6.8994   6.9942

     occupation numbers 
     1.0000   1.0000   1.0000   1.0000   1.0000   1.0000   1.0000   1.0000
     1.0000   1.0000   1.0000   1.0000   1.0000   1.0000   1.0000   1.0000
     1.0000   1.0000   1.0000   1.0000   1.0000   1.0000   1.0000   1.0000
     1.0000   1.0000   1.0000   1.0000   1.0000   1.0000   1.0000   1.0000
     1.0000   1.0000   1.0000   1.0000   1.0000   1.0000   1.0000   1.0000
     1.0000   1.0000   1.0000   1.0000   1.0000   1.0000   1.0000   1.0000
     1.0000   1.0000   1.0000   1.0000   1.0000   1.0000   1.0000   1.0000
     1.0000   1.0000   1.0000   1.0000   1.0000   1.0000   1.0000   1.0000
     1.0000   1.0000   1.0000   1.0000   1.0000   1.0000   1.0000   1.0000
     1.0000   1.0000   1.0000   1.0000   1.0000   1.0000   1.0000   1.0000
     1.0000   1.0000   1.0000   1.0000   1.0000   1.0000   1.0000   1.0000
     1.0000   1.0000   1.0000   1.0000   1.0000   1.0000   1.0000   1.0000
     0.0000   0.0000   0.0000   0.0000   0.0000   0.0000   0.0000   0.0000
     0.0000   0.0000   0.0000   0.0000   0.0000   0.0000   0.0000   0.0000
     0.0000   0.0000   0.0000

          k =-0.4000-0.1987 0.2143 ( 49625 PWs)   bands (ev):

   -18.9986 -18.9958 -18.9892 -18.9707 -18.9525 -18.9462 -18.9136 -18.8799
   -18.8740 -18.8555 -18.8517 -18.8420  -9.2599  -9.2174  -9.2065  -9.1878
    -9.1787  -9.1659  -9.1399  -9.1170  -9.1101  -9.0750  -9.0381  -9.0196
    -5.8923  -5.8858  -5.8809  -5.8405  -5.8352  -5.8305  -5.8220  -5.8185
    -5.8130  -5.8017  -5.7971  -5.7941  -5.7850  -5.7835  -5.7778  -5.7699
    -5.7658  -5.7631  -5.7505  -5.7480  -5.7372  -5.7193  -5.7135  -5.7075
    -5.7030  -5.7013  -5.6955  -5.6893  -5.6852  -5.6770  -5.6716  -5.6692
    -5.6634  -5.6595  -5.6535  -5.6479   0.3133   0.3170   0.3683   0.3710
     0.4851   0.5024   0.5988   0.6521   0.6859   0.6931   0.7020   0.7194
     0.7217   0.7323   0.7452   0.7506   0.7593   0.7623   0.7703   0.7749
     0.7829   0.7983   0.8234   0.8445   0.8571   0.8752   0.8976   0.9032
     0.9110   0.9301   0.9438   0.9506   0.9551   0.9845   1.0263   1.0338
     5.2584   5.6036   5.6348   5.7483   5.8037   6.0928   6.3248   6.5325
     6.5763   6.6474   6.7190   6.8202   6.8231   6.8659   6.8743   6.8910
     6.9198   6.9563   6.9920

     occupation numbers 
     1.0000   1.0000   1.0000   1.0000   1.0000   1.0000   1.0000   1.0000
     1.0000   1.0000   1.0000   1.0000   1.0000   1.0000   1.0000   1.0000
     1.0000   1.0000   1.0000   1.0000   1.0000   1.0000   1.0000   1.0000
     1.0000   1.0000   1.0000   1.0000   1.0000   1.0000   1.0000   1.0000
     1.0000   1.0000   1.0000   1.0000   1.0000   1.0000   1.0000   1.0000
     1.0000   1.0000   1.0000   1.0000   1.0000   1.0000   1.0000   1.0000
     1.0000   1.0000   1.0000   1.0000   1.0000   1.0000   1.0000   1.0000
     1.0000   1.0000   1.0000   1.0000   1.0000   1.0000   1.0000   1.0000
     1.0000   1.0000   1.0000   1.0000   1.0000   1.0000   1.0000   1.0000
     1.0000   1.0000   1.0000   1.0000   1.0000   1.0000   1.0000   1.0000
     1.0000   1.0000   1.0000   1.0000   1.0000   1.0000   1.0000   1.0000
     1.0000   1.0000   1.0000   1.0000   1.0000   1.0000   1.0000   1.0000
     0.0000   0.0000   0.0000   0.0000   0.0000   0.0000   0.0000   0.0000
     0.0000   0.0000   0.0000   0.0000   0.0000   0.0000   0.0000   0.0000
     0.0000   0.0000   0.0000

          k =-0.4000-0.3502 0.4286 ( 49608 PWs)   bands (ev):

   -18.9985 -18.9958 -18.9893 -18.9706 -18.9525 -18.9462 -18.9135 -18.8799
   -18.8740 -18.8554 -18.8517 -18.8420  -9.2594  -9.2138  -9.2052  -9.1883
    -9.1775  -9.1672  -9.1374  -9.1185  -9.1129  -9.0760  -9.0397  -9.0206
    -5.8808  -5.8707  -5.8664  -5.8492  -5.8374  -5.8349  -5.8257  -5.8216
    -5.8167  -5.8022  -5.7993  -5.7952  -5.7872  -5.7820  -5.7789  -5.7729
    -5.7659  -5.7632  -5.7505  -5.7481  -5.7378  -5.7215  -5.7166  -5.7110
    -5.7038  -5.6985  -5.6924  -5.6867  -5.6849  -5.6740  -5.6725  -5.6697
    -5.6637  -5.6589  -5.6561  -5.6534   0.3499   0.3535   0.4231   0.4273
     0.4630   0.4732   0.6243   0.6411   0.6604   0.6721   0.6905   0.7096
     0.7226   0.7317   0.7421   0.7468   0.7500   0.7569   0.7661   0.7747
     0.7845   0.7997   0.8202   0.8287   0.8500   0.8554   0.8868   0.9002
     0.9114   0.9267   0.9356   0.9470   0.9502   0.9876   1.0197   1.0224
     5.5075   5.6675   5.7039   5.7312   5.9836   6.1942   6.4117   6.4381
     6.4990   6.5152   6.7242   6.7787   6.7924   6.8051   6.8283   6.8576
     6.8793   7.0046   7.0174

     occupation numbers 
     1.0000   1.0000   1.0000   1.0000   1.0000   1.0000   1.0000   1.0000
     1.0000   1.0000   1.0000   1.0000   1.0000   1.0000   1.0000   1.0000
     1.0000   1.0000   1.0000   1.0000   1.0000   1.0000   1.0000   1.0000
     1.0000   1.0000   1.0000   1.0000   1.0000   1.0000   1.0000   1.0000
     1.0000   1.0000   1.0000   1.0000   1.0000   1.0000   1.0000   1.0000
     1.0000   1.0000   1.0000   1.0000   1.0000   1.0000   1.0000   1.0000
     1.0000   1.0000   1.0000   1.0000   1.0000   1.0000   1.0000   1.0000
     1.0000   1.0000   1.0000   1.0000   1.0000   1.0000   1.0000   1.0000
     1.0000   1.0000   1.0000   1.0000   1.0000   1.0000   1.0000   1.0000
     1.0000   1.0000   1.0000   1.0000   1.0000   1.0000   1.0000   1.0000
     1.0000   1.0000   1.0000   1.0000   1.0000   1.0000   1.0000   1.0000
     1.0000   1.0000   1.0000   1.0000   1.0000   1.0000   1.0000   1.0000
     0.0000   0.0000   0.0000   0.0000   0.0000   0.0000   0.0000   0.0000
     0.0000   0.0000   0.0000   0.0000   0.0000   0.0000   0.0000   0.0000
     0.0000   0.0000   0.0000

          k =-0.4000-0.5017 0.6429 ( 49607 PWs)   bands (ev):

   -18.9985 -18.9958 -18.9893 -18.9706 -18.9525 -18.9462 -18.9135 -18.8799
   -18.8740 -18.8554 -18.8518 -18.8420  -9.2588  -9.2087  -9.2038  -9.1901
    -9.1761  -9.1684  -9.1333  -9.1205  -9.1169  -9.0772  -9.0415  -9.0217
    -5.8649  -5.8620  -5.8535  -5.8459  -5.8395  -5.8330  -5.8296  -5.8256
    -5.8212  -5.8058  -5.8004  -5.7942  -5.7888  -5.7834  -5.7811  -5.7732
    -5.7699  -5.7623  -5.7535  -5.7490  -5.7411  -5.7256  -5.7198  -5.7138
    -5.7025  -5.6974  -5.6932  -5.6843  -5.6810  -5.6753  -5.6725  -5.6699
    -5.6649  -5.6632  -5.6563  -5.6543   0.4187   0.4272   0.4458   0.4527
     0.5045   0.5196   0.5847   0.5940   0.6132   0.6191   0.6415   0.6709
     0.7250   0.7299   0.7323   0.7467   0.7541   0.7623   0.7705   0.7791
     0.8082   0.8155   0.8210   0.8353   0.8542   0.8602   0.8745   0.8857
     0.8966   0.9088   0.9204   0.9385   0.9506   0.9823   0.9972   1.0225
     5.7546   5.8462   5.8754   5.9406   6.1794   6.1967   6.2604   6.3921
     6.5008   6.5348   6.5553   6.5941   6.6905   6.7339   6.7681   6.7805
     6.8009   6.9269   7.0265

     occupation numbers 
     1.0000   1.0000   1.0000   1.0000   1.0000   1.0000   1.0000   1.0000
     1.0000   1.0000   1.0000   1.0000   1.0000   1.0000   1.0000   1.0000
     1.0000   1.0000   1.0000   1.0000   1.0000   1.0000   1.0000   1.0000
     1.0000   1.0000   1.0000   1.0000   1.0000   1.0000   1.0000   1.0000
     1.0000   1.0000   1.0000   1.0000   1.0000   1.0000   1.0000   1.0000
     1.0000   1.0000   1.0000   1.0000   1.0000   1.0000   1.0000   1.0000
     1.0000   1.0000   1.0000   1.0000   1.0000   1.0000   1.0000   1.0000
     1.0000   1.0000   1.0000   1.0000   1.0000   1.0000   1.0000   1.0000
     1.0000   1.0000   1.0000   1.0000   1.0000   1.0000   1.0000   1.0000
     1.0000   1.0000   1.0000   1.0000   1.0000   1.0000   1.0000   1.0000
     1.0000   1.0000   1.0000   1.0000   1.0000   1.0000   1.0000   1.0000
     1.0000   1.0000   1.0000   1.0000   1.0000   1.0000   1.0000   1.0000
     0.0000   0.0000   0.0000   0.0000   0.0000   0.0000   0.0000   0.0000
     0.0000   0.0000   0.0000   0.0000   0.0000   0.0000   0.0000   0.0000
     0.0000   0.0000   0.0000

          k =-0.4000 0.4074-0.6429 ( 49630 PWs)   bands (ev):

   -18.9985 -18.9958 -18.9893 -18.9706 -18.9525 -18.9462 -18.9135 -18.8799
   -18.8740 -18.8554 -18.8518 -18.8420  -9.2585  -9.2062  -9.2035  -9.1912
    -9.1757  -9.1685  -9.1312  -9.1210  -9.1193  -9.0776  -9.0422  -9.0221
    -5.8644  -5.8567  -5.8506  -5.8455  -5.8380  -5.8363  -5.8296  -5.8249
    -5.8194  -5.8047  -5.7996  -5.7945  -5.7902  -5.7851  -5.7824  -5.7737
    -5.7706  -5.7643  -5.7516  -5.7486  -5.7407  -5.7263  -5.7182  -5.7141
    -5.7023  -5.6978  -5.6935  -5.6861  -5.6829  -5.6765  -5.6740  -5.6713
    -5.6662  -5.6632  -5.6557  -5.6531   0.4458   0.4496   0.4815   0.4970
     0.5029   0.5230   0.5468   0.5767   0.5897   0.6086   0.6229   0.6526
     0.7257   0.7327   0.7377   0.7511   0.7578   0.7714   0.7803   0.7861
     0.7977   0.8135   0.8240   0.8265   0.8375   0.8525   0.8760   0.8869
     0.8993   0.9079   0.9177   0.9396   0.9471   0.9577   1.0014   1.0232
     5.7765   5.9348   6.0550   6.1312   6.2270   6.2356   6.2693   6.4029
     6.4337   6.4897   6.5243   6.5936   6.6114   6.6234   6.6618   6.6912
     6.7382   6.8255   6.8347

     occupation numbers 
     1.0000   1.0000   1.0000   1.0000   1.0000   1.0000   1.0000   1.0000
     1.0000   1.0000   1.0000   1.0000   1.0000   1.0000   1.0000   1.0000
     1.0000   1.0000   1.0000   1.0000   1.0000   1.0000   1.0000   1.0000
     1.0000   1.0000   1.0000   1.0000   1.0000   1.0000   1.0000   1.0000
     1.0000   1.0000   1.0000   1.0000   1.0000   1.0000   1.0000   1.0000
     1.0000   1.0000   1.0000   1.0000   1.0000   1.0000   1.0000   1.0000
     1.0000   1.0000   1.0000   1.0000   1.0000   1.0000   1.0000   1.0000
     1.0000   1.0000   1.0000   1.0000   1.0000   1.0000   1.0000   1.0000
     1.0000   1.0000   1.0000   1.0000   1.0000   1.0000   1.0000   1.0000
     1.0000   1.0000   1.0000   1.0000   1.0000   1.0000   1.0000   1.0000
     1.0000   1.0000   1.0000   1.0000   1.0000   1.0000   1.0000   1.0000
     1.0000   1.0000   1.0000   1.0000   1.0000   1.0000   1.0000   1.0000
     0.0000   0.0000   0.0000   0.0000   0.0000   0.0000   0.0000   0.0000
     0.0000   0.0000   0.0000   0.0000   0.0000   0.0000   0.0000   0.0000
     0.0000   0.0000   0.0000

          k =-0.4000 0.2559-0.4286 ( 49615 PWs)   bands (ev):

   -18.9985 -18.9958 -18.9893 -18.9706 -18.9525 -18.9462 -18.9135 -18.8799
   -18.8740 -18.8554 -18.8518 -18.8420  -9.2589  -9.2098  -9.2041  -9.1899
    -9.1764  -9.1680  -9.1341  -9.1203  -9.1159  -9.0769  -9.0412  -9.0216
    -5.8743  -5.8680  -5.8588  -5.8511  -5.8436  -5.8318  -5.8249  -5.8159
    -5.8126  -5.8020  -5.7984  -5.7952  -5.7890  -5.7844  -5.7800  -5.7736
    -5.7702  -5.7641  -5.7486  -5.7475  -5.7361  -5.7240  -5.7166  -5.7109
    -5.7047  -5.6981  -5.6945  -5.6898  -5.6847  -5.6769  -5.6750  -5.6725
    -5.6666  -5.6591  -5.6564  -5.6520   0.4033   0.4092   0.4494   0.4524
     0.4798   0.4893   0.5373   0.5924   0.6459   0.6590   0.6943   0.7114
     0.7281   0.7363   0.7486   0.7541   0.7591   0.7641   0.7749   0.7832
     0.7902   0.8067   0.8124   0.8282   0.8314   0.8482   0.8761   0.8792
     0.8943   0.9190   0.9241   0.9371   0.9478   0.9556   1.0122   1.0377
     5.4360   5.9591   6.0288   6.0676   6.1199   6.2287   6.3401   6.4327
     6.4418   6.4773   6.5276   6.5581   6.5809   6.5863   6.6108   6.8098
     6.9174   6.9433   7.0027

     occupation numbers 
     1.0000   1.0000   1.0000   1.0000   1.0000   1.0000   1.0000   1.0000
     1.0000   1.0000   1.0000   1.0000   1.0000   1.0000   1.0000   1.0000
     1.0000   1.0000   1.0000   1.0000   1.0000   1.0000   1.0000   1.0000
     1.0000   1.0000   1.0000   1.0000   1.0000   1.0000   1.0000   1.0000
     1.0000   1.0000   1.0000   1.0000   1.0000   1.0000   1.0000   1.0000
     1.0000   1.0000   1.0000   1.0000   1.0000   1.0000   1.0000   1.0000
     1.0000   1.0000   1.0000   1.0000   1.0000   1.0000   1.0000   1.0000
     1.0000   1.0000   1.0000   1.0000   1.0000   1.0000   1.0000   1.0000
     1.0000   1.0000   1.0000   1.0000   1.0000   1.0000   1.0000   1.0000
     1.0000   1.0000   1.0000   1.0000   1.0000   1.0000   1.0000   1.0000
     1.0000   1.0000   1.0000   1.0000   1.0000   1.0000   1.0000   1.0000
     1.0000   1.0000   1.0000   1.0000   1.0000   1.0000   1.0000   1.0000
     0.0000   0.0000   0.0000   0.0000   0.0000   0.0000   0.0000   0.0000
     0.0000   0.0000   0.0000   0.0000   0.0000   0.0000   0.0000   0.0000
     0.0000   0.0000   0.0000

          k =-0.4000 0.1044-0.2143 ( 49653 PWs)   bands (ev):

   -18.9986 -18.9958 -18.9892 -18.9707 -18.9525 -18.9462 -18.9135 -18.8799
   -18.8740 -18.8555 -18.8517 -18.8420  -9.2595  -9.2148  -9.2056  -9.1886
    -9.1777  -9.1666  -9.1378  -9.1184  -9.1118  -9.0757  -9.0393  -9.0204
    -5.8877  -5.8838  -5.8780  -5.8451  -5.8342  -5.8306  -5.8180  -5.8144
    -5.8083  -5.8029  -5.7983  -5.7941  -5.7858  -5.7834  -5.7764  -5.7728
    -5.7687  -5.7619  -5.7499  -5.7483  -5.7356  -5.7213  -5.7158  -5.7081
    -5.7066  -5.7003  -5.6966  -5.6893  -5.6845  -5.6773  -5.6743  -5.6707
    -5.6651  -5.6585  -5.6549  -5.6489   0.3527   0.3586   0.3737   0.3780
     0.5047   0.5302   0.5478   0.5677   0.6965   0.7039   0.7100   0.7188
     0.7257   0.7423   0.7457   0.7535   0.7656   0.7683   0.7765   0.7833
     0.7994   0.8170   0.8199   0.8428   0.8502   0.8621   0.8814   0.8925
     0.8955   0.9000   0.9308   0.9410   0.9464   0.9558   1.0346   1.0435
     5.2181   5.7848   5.8144   5.8409   6.0777   6.1210   6.2263   6.3673
     6.5498   6.5664   6.6224   6.6656   6.7141   6.7825   6.8030   6.8520
     6.9215   6.9398   7.0819

     occupation numbers 
     1.0000   1.0000   1.0000   1.0000   1.0000   1.0000   1.0000   1.0000
     1.0000   1.0000   1.0000   1.0000   1.0000   1.0000   1.0000   1.0000
     1.0000   1.0000   1.0000   1.0000   1.0000   1.0000   1.0000   1.0000
     1.0000   1.0000   1.0000   1.0000   1.0000   1.0000   1.0000   1.0000
     1.0000   1.0000   1.0000   1.0000   1.0000   1.0000   1.0000   1.0000
     1.0000   1.0000   1.0000   1.0000   1.0000   1.0000   1.0000   1.0000
     1.0000   1.0000   1.0000   1.0000   1.0000   1.0000   1.0000   1.0000
     1.0000   1.0000   1.0000   1.0000   1.0000   1.0000   1.0000   1.0000
     1.0000   1.0000   1.0000   1.0000   1.0000   1.0000   1.0000   1.0000
     1.0000   1.0000   1.0000   1.0000   1.0000   1.0000   1.0000   1.0000
     1.0000   1.0000   1.0000   1.0000   1.0000   1.0000   1.0000   1.0000
     1.0000   1.0000   1.0000   1.0000   1.0000   1.0000   1.0000   1.0000
     0.0000   0.0000   0.0000   0.0000   0.0000   0.0000   0.0000   0.0000
     0.0000   0.0000   0.0000   0.0000   0.0000   0.0000   0.0000   0.0000
     0.0000   0.0000   0.0000

     the Fermi energy is     2.6117 ev

!    total energy              =   -1547.36645034 Ry
     Harris-Foulkes estimate   =   -1547.36644906 Ry
     estimated scf accuracy    <       0.00000003 Ry

     The total energy is the sum of the following terms:

     one-electron contribution =    -141.78471404 Ry
     hartree contribution      =     132.92685039 Ry
     xc contribution           =    -944.44327059 Ry
     ewald contribution        =    -594.06531610 Ry
     smearing contrib. (-TS)   =       0.00000000 Ry

     convergence has been achieved in   9 iterations

     Writing output data file aiida.save
 
     init_run     :     17.61s CPU     19.15s WALL (       1 calls)
     electrons    :    362.10s CPU    378.76s WALL (       1 calls)

     Called by init_run:
     wfcinit      :     10.94s CPU     11.33s WALL (       1 calls)
     wfcinit:atom :      0.03s CPU      0.04s WALL (       5 calls)
     wfcinit:wfcr :     10.40s CPU     10.71s WALL (       5 calls)
     potinit      :      1.05s CPU      1.16s WALL (       1 calls)

     Called by electrons:
     c_bands      :    299.31s CPU    311.45s WALL (      10 calls)
     sum_band     :     46.77s CPU     49.33s WALL (      10 calls)
     v_of_rho     :      4.23s CPU      4.40s WALL (      10 calls)
     v_h          :      0.17s CPU      0.19s WALL (      10 calls)
     v_xc         :      4.06s CPU      4.21s WALL (      10 calls)
     newd         :     10.60s CPU     11.99s WALL (      10 calls)
     mix_rho      :      0.38s CPU      0.54s WALL (      10 calls)

     Called by c_bands:
     init_us_2    :      1.28s CPU      1.29s WALL (     105 calls)
     cegterg      :    234.35s CPU    243.01s WALL (      50 calls)

     Called by sum_band:
     sum_band:bec :      0.05s CPU      0.05s WALL (      50 calls)
     addusdens    :     11.49s CPU     13.09s WALL (      10 calls)

     Called by *egterg:
     h_psi        :    165.46s CPU    167.90s WALL (     325 calls)
     s_psi        :      9.50s CPU      9.51s WALL (     325 calls)
     g_psi        :      0.30s CPU      0.31s WALL (     270 calls)
     cdiaghg      :     35.87s CPU     39.96s WALL (     315 calls)
     cegterg:over :      9.80s CPU     10.25s WALL (     270 calls)
     cegterg:upda :     11.01s CPU     11.49s WALL (     270 calls)
     cegterg:last :      2.80s CPU      2.94s WALL (      50 calls)
     cdiaghg:chol :      1.70s CPU      2.72s WALL (     315 calls)
     cdiaghg:inve :      0.36s CPU      0.55s WALL (     315 calls)
     cdiaghg:para :      2.22s CPU      2.67s WALL (     630 calls)

     Called by h_psi:
     h_psi:pot    :    165.08s CPU    167.52s WALL (     325 calls)
     h_psi:calbec :     10.00s CPU     10.49s WALL (     325 calls)
     vloc_psi     :    145.47s CPU    147.39s WALL (     325 calls)
     add_vuspsi   :      9.60s CPU      9.63s WALL (     325 calls)

     General routines
     calbec       :     13.42s CPU     14.07s WALL (     375 calls)
     fft          :      4.57s CPU      5.38s WALL (     160 calls)
     ffts         :      0.15s CPU      0.15s WALL (      20 calls)
     fftw         :    152.89s CPU    154.84s WALL (   37982 calls)
     interpolate  :      0.48s CPU      0.52s WALL (      20 calls)
     davcio       :      0.00s CPU      0.37s WALL (       5 calls)
 
     Parallel routines
     fft_scatter  :     54.10s CPU     55.19s WALL (   38162 calls)
 
     PWSCF        :  6m35.15s CPU     7m46.47s WALL

 
   This run was terminated on:  12: 0:14   2May2017            

=------------------------------------------------------------------------------=
   JOB DONE.
=------------------------------------------------------------------------------=
