
     Program PWSCF v.6.1 (svn rev. 13369) starts on  8May2017 at 16:44:47 

     This program is part of the open-source Quantum ESPRESSO suite
     for quantum simulation of materials; please cite
         "P. Giannozzi et al., J. Phys.:Condens. Matter 21 395502 (2009);
          URL http://www.quantum-espresso.org", 
     in publications or presentations arising from this work. More details at
     http://www.quantum-espresso.org/quote

     Parallel version (MPI), running on   640 processors
     K-points division:     npool     =      10
     R & G space division:  proc/nbgrp/npool/nimage =      64
     wavefunctions fft division:  fft and procs/group =      16      4
     Reading input from pw.in
     Message from routine read_cards :
     DEPRECATED: no units specified in CELL_PARAMETERS card

     Current dimensions of program PWSCF are:
     Max number of different atomic species (ntypx) = 10
     Max number of k-points (npk) =  40000
     Max angular momentum in pseudopotentials (lmaxx) =  3

     Subspace diagonalization in iterative solution of the eigenvalue problem:
     one sub-group per band group will be used
     custom distributed-memory algorithm (size of sub-group:  8*  8 procs)

 
     Parallelization info
     --------------------
     sticks:   dense  smooth     PW     G-vecs:    dense   smooth      PW
     Min         157      84     22                11851     4622     650
     Max         158      85     23                11857     4626     657
     Sum       10049    5377   1457               758657   295907   41851
 


     bravais-lattice index     =            0
     lattice parameter (alat)  =       1.0000  a.u.
     unit-cell volume          =    8646.7719 (a.u.)^3
     number of atoms/cell      =           64
     number of atomic types    =            2
     number of electrons       =       266.00
     number of Kohn-Sham states=          160
     kinetic-energy cutoff     =      40.0000  Ry
     charge density cutoff     =     300.0000  Ry
     convergence threshold     =      1.0E-10
     mixing beta               =       0.7000
     number of iterations used =            8  plain     mixing
     Exchange-correlation      = SLA  PZ   NOGX NOGC ( 1  1  0  0 0 0)
     nstep                     =          100


     celldm(1)=   1.000000  celldm(2)=   0.000000  celldm(3)=   0.000000
     celldm(4)=   0.000000  celldm(5)=   0.000000  celldm(6)=   0.000000

     crystal axes: (cart. coord. in units of alat)
               a(1) = (  20.525071   0.000000   0.000000 )  
               a(2) = (   0.000000  20.525071   0.000000 )  
               a(3) = (   0.000000   0.000000  20.525071 )  

     reciprocal axes: (cart. coord. in units 2 pi/alat)
               b(1) = (  0.048721  0.000000  0.000000 )  
               b(2) = (  0.000000  0.048721  0.000000 )  
               b(3) = (  0.000000  0.000000  0.048721 )  


     PseudoPot. # 1 for Ge read from file:
     ./ge_lda_v1.uspp.F.UPF
     MD5 check sum: 575f587c0f86b3eee266efe92ef02c15
     Pseudo is Ultrasoft + core correction, Zval = 14.0
     Generated by new atomic code, or converted to UPF format
     Using radial grid of  873 points,  6 beta functions with: 
                l(1) =   0
                l(2) =   0
                l(3) =   1
                l(4) =   1
                l(5) =   2
                l(6) =   2
     Q(r) pseudized with  8 coefficients,  rinner =    1.400   1.400   1.400
                                                       1.400   1.400

     PseudoPot. # 2 for Si read from file:
     ./si_lda_v1.uspp.F.UPF
     MD5 check sum: ca10e49b2835512e91ee5100d37237e0
     Pseudo is Ultrasoft + core correction, Zval =  4.0
     Generated by new atomic code, or converted to UPF format
     Using radial grid of  899 points,  6 beta functions with: 
                l(1) =   0
                l(2) =   0
                l(3) =   1
                l(4) =   1
                l(5) =   2
                l(6) =   2
     Q(r) pseudized with  8 coefficients,  rinner =    0.900   0.900   0.900
                                                       0.900   0.900

     atomic species   valence    mass     pseudopotential
        Ge            14.00    72.61000     Ge( 1.00)
        Si             4.00    28.08550     Si( 1.00)

     24 Sym. Ops. (no inversion) found



   Cartesian axes

     site n.     atom                  positions (alat units)
         1           Ge  tau(   1) = (   0.0000000   0.0000000   0.0000000  )
         2           Si  tau(   2) = (   0.0000000   0.0000000  10.2625355  )
         3           Si  tau(   3) = (   0.0000000  10.2625355   0.0000000  )
         4           Si  tau(   4) = (   0.0000000  10.2625355  10.2625355  )
         5           Si  tau(   5) = (  10.2625355   0.0000000   0.0000000  )
         6           Si  tau(   6) = (  10.2625355   0.0000000  10.2625355  )
         7           Si  tau(   7) = (  10.2625355  10.2625355   0.0000000  )
         8           Si  tau(   8) = (  10.2625355  10.2625355  10.2625355  )
         9           Si  tau(   9) = (   0.0000000   5.1312678   5.1312678  )
        10           Si  tau(  10) = (   0.0000000   5.1312678  15.3938033  )
        11           Si  tau(  11) = (   0.0000000  15.3938033   5.1312678  )
        12           Si  tau(  12) = (   0.0000000  15.3938033  15.3938033  )
        13           Si  tau(  13) = (  10.2625355   5.1312678   5.1312678  )
        14           Si  tau(  14) = (  10.2625355   5.1312678  15.3938033  )
        15           Si  tau(  15) = (  10.2625355  15.3938033   5.1312678  )
        16           Si  tau(  16) = (  10.2625355  15.3938033  15.3938033  )
        17           Si  tau(  17) = (   5.1312678   0.0000000   5.1312678  )
        18           Si  tau(  18) = (   5.1312678   0.0000000  15.3938033  )
        19           Si  tau(  19) = (   5.1312678  10.2625355   5.1312678  )
        20           Si  tau(  20) = (   5.1312678  10.2625355  15.3938033  )
        21           Si  tau(  21) = (  15.3938033   0.0000000   5.1312678  )
        22           Si  tau(  22) = (  15.3938033   0.0000000  15.3938033  )
        23           Si  tau(  23) = (  15.3938033  10.2625355   5.1312678  )
        24           Si  tau(  24) = (  15.3938033  10.2625355  15.3938033  )
        25           Si  tau(  25) = (   5.1312678   5.1312678   0.0000000  )
        26           Si  tau(  26) = (   5.1312678   5.1312678  10.2625355  )
        27           Si  tau(  27) = (   5.1312678  15.3938033   0.0000000  )
        28           Si  tau(  28) = (   5.1312678  15.3938033  10.2625355  )
        29           Si  tau(  29) = (  15.3938033   5.1312678   0.0000000  )
        30           Si  tau(  30) = (  15.3938033   5.1312678  10.2625355  )
        31           Si  tau(  31) = (  15.3938033  15.3938033   0.0000000  )
        32           Si  tau(  32) = (  15.3938033  15.3938033  10.2625355  )
        33           Si  tau(  33) = (   7.6969016   7.6969016   2.5656339  )
        34           Si  tau(  34) = (   7.6969016   7.6969016  12.8281694  )
        35           Si  tau(  35) = (   7.6969016  17.9594371   2.5656339  )
        36           Si  tau(  36) = (   7.6969016  17.9594371  12.8281694  )
        37           Si  tau(  37) = (  17.9594371   7.6969016   2.5656339  )
        38           Si  tau(  38) = (  17.9594371   7.6969016  12.8281694  )
        39           Si  tau(  39) = (  17.9594371  17.9594371   2.5656339  )
        40           Si  tau(  40) = (  17.9594371  17.9594371  12.8281694  )
        41           Si  tau(  41) = (   7.6969016   2.5656339   7.6969016  )
        42           Si  tau(  42) = (   7.6969016   2.5656339  17.9594371  )
        43           Si  tau(  43) = (   7.6969016  12.8281694   7.6969016  )
        44           Si  tau(  44) = (   7.6969016  12.8281694  17.9594371  )
        45           Si  tau(  45) = (  17.9594371   2.5656339   7.6969016  )
        46           Si  tau(  46) = (  17.9594371   2.5656339  17.9594371  )
        47           Si  tau(  47) = (  17.9594371  12.8281694   7.6969016  )
        48           Si  tau(  48) = (  17.9594371  12.8281694  17.9594371  )
        49           Si  tau(  49) = (   2.5656339   7.6969016   7.6969016  )
        50           Si  tau(  50) = (   2.5656339   7.6969016  17.9594371  )
        51           Si  tau(  51) = (   2.5656339  17.9594371   7.6969016  )
        52           Si  tau(  52) = (   2.5656339  17.9594371  17.9594371  )
        53           Si  tau(  53) = (  12.8281694   7.6969016   7.6969016  )
        54           Si  tau(  54) = (  12.8281694   7.6969016  17.9594371  )
        55           Si  tau(  55) = (  12.8281694  17.9594371   7.6969016  )
        56           Si  tau(  56) = (  12.8281694  17.9594371  17.9594371  )
        57           Si  tau(  57) = (   2.5656339   2.5656339   2.5656339  )
        58           Si  tau(  58) = (   2.5656339   2.5656339  12.8281694  )
        59           Si  tau(  59) = (   2.5656339  12.8281694   2.5656339  )
        60           Si  tau(  60) = (   2.5656339  12.8281694  12.8281694  )
        61           Si  tau(  61) = (  12.8281694   2.5656339   2.5656339  )
        62           Si  tau(  62) = (  12.8281694   2.5656339  12.8281694  )
        63           Si  tau(  63) = (  12.8281694  12.8281694   2.5656339  )
        64           Si  tau(  64) = (  12.8281694  12.8281694  12.8281694  )

     number of k points=    10  gaussian smearing, width (Ry)=  0.0010
                       cart. coord. in units 2pi/alat
        k(    1) = (   0.0000000   0.0000000   0.0000000), wk =   0.0312500
        k(    2) = (   0.0000000   0.0000000   0.0121802), wk =   0.1875000
        k(    3) = (   0.0000000   0.0000000  -0.0243605), wk =   0.0937500
        k(    4) = (   0.0000000   0.0121802   0.0121802), wk =   0.3750000
        k(    5) = (   0.0000000   0.0121802  -0.0243605), wk =   0.3750000
        k(    6) = (   0.0000000  -0.0243605  -0.0243605), wk =   0.0937500
        k(    7) = (   0.0121802   0.0121802   0.0121802), wk =   0.2500000
        k(    8) = (   0.0121802   0.0121802  -0.0243605), wk =   0.3750000
        k(    9) = (   0.0121802  -0.0243605  -0.0243605), wk =   0.1875000
        k(   10) = (  -0.0243605  -0.0243605  -0.0243605), wk =   0.0312500

     Dense  grid:   758657 G-vectors     FFT dimensions: ( 120, 120, 120)

     Smooth grid:   295907 G-vectors     FFT dimensions: (  90,  90,  90)

     Estimated max dynamical RAM per process >      32.68MB

     Estimated total allocated dynamical RAM >   20914.88MB

     Initial potential from superposition of free atoms

     starting charge  265.96130, renormalised to  266.00000
     Starting wfc are  261 randomized atomic wfcs

     total cpu time spent up to now is       12.7 secs

     per-process dynamical memory:    94.5 Mb

     Self-consistent Calculation

     iteration #  1     ecut=    40.00 Ry     beta=0.70
     Davidson diagonalization with overlap
     ethr =  1.00E-02,  avg # of iterations =  3.1

     Threshold (ethr) on eigenvalues was too large:
     Diagonalizing with lowered threshold

     Davidson diagonalization with overlap
     ethr =  6.96E-04,  avg # of iterations =  1.9

     total cpu time spent up to now is       19.6 secs

     total energy              =    -813.82290720 Ry
     Harris-Foulkes estimate   =    -814.46428915 Ry
     estimated scf accuracy    <       1.83007140 Ry

     iteration #  2     ecut=    40.00 Ry     beta=0.70
     Davidson diagonalization with overlap
     ethr =  6.88E-04,  avg # of iterations =  1.2

     total cpu time spent up to now is       22.0 secs

     total energy              =    -813.91196229 Ry
     Harris-Foulkes estimate   =    -813.92751280 Ry
     estimated scf accuracy    <       0.06284189 Ry

     iteration #  3     ecut=    40.00 Ry     beta=0.70
     Davidson diagonalization with overlap
     ethr =  2.36E-05,  avg # of iterations =  9.5

     total cpu time spent up to now is       28.3 secs

     total energy              =    -813.91694461 Ry
     Harris-Foulkes estimate   =    -813.93003038 Ry
     estimated scf accuracy    <       0.02205658 Ry

     iteration #  4     ecut=    40.00 Ry     beta=0.70
     Davidson diagonalization with overlap
     ethr =  8.29E-06,  avg # of iterations =  6.1

     total cpu time spent up to now is       33.7 secs

     total energy              =    -813.91990248 Ry
     Harris-Foulkes estimate   =    -813.93413812 Ry
     estimated scf accuracy    <       0.04898021 Ry

     iteration #  5     ecut=    40.00 Ry     beta=0.70
     Davidson diagonalization with overlap
     ethr =  8.29E-06,  avg # of iterations =  5.3

     total cpu time spent up to now is       38.3 secs

     total energy              =    -813.92636372 Ry
     Harris-Foulkes estimate   =    -813.92762594 Ry
     estimated scf accuracy    <       0.00344368 Ry

     iteration #  6     ecut=    40.00 Ry     beta=0.70
     Davidson diagonalization with overlap
     ethr =  1.29E-06,  avg # of iterations =  3.0

     total cpu time spent up to now is       41.0 secs

     total energy              =    -813.92700739 Ry
     Harris-Foulkes estimate   =    -813.92706783 Ry
     estimated scf accuracy    <       0.00015420 Ry

     iteration #  7     ecut=    40.00 Ry     beta=0.70
     Davidson diagonalization with overlap
     ethr =  5.80E-08,  avg # of iterations =  3.0

     total cpu time spent up to now is       43.7 secs

     total energy              =    -813.92705243 Ry
     Harris-Foulkes estimate   =    -813.92705913 Ry
     estimated scf accuracy    <       0.00001544 Ry

     iteration #  8     ecut=    40.00 Ry     beta=0.70
     Davidson diagonalization with overlap
     ethr =  5.80E-09,  avg # of iterations =  3.0

     total cpu time spent up to now is       46.6 secs

     total energy              =    -813.92705629 Ry
     Harris-Foulkes estimate   =    -813.92705701 Ry
     estimated scf accuracy    <       0.00000163 Ry

     iteration #  9     ecut=    40.00 Ry     beta=0.70
     Davidson diagonalization with overlap
     ethr =  6.15E-10,  avg # of iterations =  2.8

     total cpu time spent up to now is       49.3 secs

     total energy              =    -813.92705672 Ry
     Harris-Foulkes estimate   =    -813.92705677 Ry
     estimated scf accuracy    <       0.00000017 Ry

     iteration # 10     ecut=    40.00 Ry     beta=0.70
     Davidson diagonalization with overlap
     ethr =  6.38E-11,  avg # of iterations =  3.0

     total cpu time spent up to now is       51.9 secs

     total energy              =    -813.92705674 Ry
     Harris-Foulkes estimate   =    -813.92705675 Ry
     estimated scf accuracy    <       0.00000003 Ry

     iteration # 11     ecut=    40.00 Ry     beta=0.70
     Davidson diagonalization with overlap
     ethr =  1.26E-11,  avg # of iterations =  2.3

     total cpu time spent up to now is       54.3 secs

     total energy              =    -813.92705675 Ry
     Harris-Foulkes estimate   =    -813.92705675 Ry
     estimated scf accuracy    <          3.1E-09 Ry

     iteration # 12     ecut=    40.00 Ry     beta=0.70
     Davidson diagonalization with overlap
     ethr =  1.15E-12,  avg # of iterations =  3.0

     total cpu time spent up to now is       57.1 secs

     total energy              =    -813.92705675 Ry
     Harris-Foulkes estimate   =    -813.92705675 Ry
     estimated scf accuracy    <          1.5E-10 Ry

     iteration # 13     ecut=    40.00 Ry     beta=0.70
     Davidson diagonalization with overlap
     ethr =  1.00E-13,  avg # of iterations =  3.0

     total cpu time spent up to now is       59.9 secs

     End of self-consistent calculation

          k = 0.0000 0.0000 0.0000 ( 37073 PWs)   bands (ev):

   -18.2687 -18.2687 -18.2687 -18.2385 -18.2385  -5.9343  -4.9974  -4.8231
    -4.8231  -4.8231  -4.8211  -4.8211  -4.1145  -3.8627  -3.8627  -3.8627
    -3.8583  -3.8583  -3.8583  -3.8582  -3.8582  -3.8582  -3.8581  -3.8581
    -3.6103  -3.5669  -3.5669  -3.5669  -1.9433  -1.7641  -1.7641  -1.7641
    -1.7610  -1.7610  -1.6828  -1.5978  -1.5978  -1.5978  -1.5950  -1.5950
    -1.5950  -1.5943  -1.5943  -1.5943  -1.5941  -1.5941  -0.9551  -0.9376
    -0.9376  -0.9376   0.4467   0.5640   0.5640   0.5640   0.5675   0.5675
     0.5675   0.5684   0.5684   0.5709   0.5709   0.5709   2.1724   2.1724
     2.1724   2.1820   2.1820   2.1820   2.1829   2.1829   2.1829   2.1830
     2.1860   2.1860   2.2674   2.2731   2.2731   2.2731   2.2814   2.2814
     2.2814   2.2833   2.2833   2.2843   2.2843   2.2843   2.4687   2.5267
     2.5267   2.5303   2.5303   2.5303   3.2048   3.2048   3.2048   3.2049
     3.2049   3.2049   4.1649   4.1649   4.1649   4.1665   4.1665   4.1665
     4.1685   4.1685   4.1685   4.1772   4.1772   4.1772   4.7313   4.7313
     4.7313   4.7337   4.7337   4.7337   4.7338   4.7373   4.7373   4.7406
     4.7406   4.7406   4.8620   4.8620   4.8620   4.8653   4.8653   4.8710
     4.8710   4.8710   6.0682   6.0682   6.0682   6.6468   6.6813   6.6813
     6.6813   6.6824   6.6824   7.0856   7.1109   7.1109   7.1187   7.1187
     7.1187   7.4324   7.4911   7.4911   7.4911   8.3771   8.4258   8.4258
     8.4258   8.4283   8.4283   8.4283   8.4505   8.4505   8.4505   8.4511

          k = 0.0000 0.0000 0.0122 ( 36941 PWs)   bands (ev):

   -18.2687 -18.2687 -18.2687 -18.2385 -18.2384  -5.8669  -5.3263  -4.8838
    -4.7608  -4.7608  -4.7588  -4.3835  -4.2715  -4.2715  -4.2700  -4.2341
    -3.9146  -3.8241  -3.8241  -3.8222  -3.6760  -3.6183  -3.6183  -3.6178
    -3.4059  -3.3551  -3.3551  -3.3543  -2.7027  -2.2618  -2.1842  -2.1842
    -2.1835  -1.8139  -1.7415  -1.7415  -1.7386  -1.6565  -1.6229  -1.6229
    -1.6214  -1.0961  -1.0431  -1.0431  -1.0413  -0.8010  -0.7739  -0.7738
    -0.7738  -0.7613  -0.0353   0.0102   0.0102   0.0121   0.1969   0.2227
     0.2250   0.2250   1.1200   1.1573   1.1573   1.1574   1.3995   1.8675
     1.8675   1.8692   1.8723   1.9470   1.9494   1.9494   1.9534   2.2456
     2.2832   2.2855   2.2855   2.3013   2.3018   2.3018   2.3064   2.7158
     2.7235   2.7235   2.7258   2.7339   2.7339   2.7349   2.7352   2.7532
     2.7565   2.7565   2.7572   3.0110   3.0116   3.0116   3.0126   3.2667
     3.2667   3.6322   3.7544   3.7544   3.8886   3.8924   3.8959   3.8959
     4.2154   4.2166   4.2166   4.2188   4.3309   4.3309   4.3321   4.3371
     4.4377   4.4383   4.4383   4.4396   4.6806   4.6806   4.7504   4.7538
     4.7548   4.7548   4.8306   4.8306   4.8317   4.8356   4.8419   4.8452
     4.8488   4.8488   5.6325   5.8029   5.8029   6.5439   6.7804   6.9908
     7.0301   7.0467   7.0467   7.0467   7.4944   7.5098   7.5188   7.5188
     7.5430   7.7972   7.8472   7.8472   7.8515   8.2216   8.3793   8.4107
     8.4107   8.4133   8.4213   8.4350   8.4350   8.4398   8.4651   8.9426

          k = 0.0000 0.0000-0.0244 ( 36906 PWs)   bands (ev):

   -18.2687 -18.2687 -18.2687 -18.2384 -18.2384  -5.6931  -5.6305  -4.7870
    -4.5769  -4.5769  -4.5752  -4.5739  -4.5734  -4.5734  -4.5729  -3.8960
    -3.7300  -3.7300  -3.7275  -3.7270  -3.7268  -3.7268  -3.7268  -3.5314
    -3.5124  -2.9099  -2.7893  -2.7849  -2.7849  -2.7841  -2.7841  -2.7840
    -2.7836  -1.7978  -1.6868  -1.6868  -1.6823  -1.6818  -1.6817  -1.6817
    -1.6817  -0.6348  -0.5197  -0.5197  -0.5163  -0.5163  -0.5160  -0.5159
    -0.5157  -0.3741  -0.3453  -0.3431  -0.3431  -0.3369  -0.3366  -0.3357
    -0.3357   0.2854   0.3055   1.6803   1.7538   1.7538   1.7559   1.7564
     1.7585   1.7608   1.7608   1.7974   1.7974   1.7993   1.8041   1.8041
     1.8041   1.8043   1.8062   2.6209   2.6209   2.6211   2.6250   2.6256
     2.6276   2.6276   2.6299   3.3225   3.3240   3.3268   3.3268   3.3284
     3.3311   3.3349   3.3349   3.4477   3.4477   3.4534   3.4534   3.4611
     3.4622   3.4622   3.4626   3.4646   3.4660   3.4660   3.4678   3.5655
     3.5795   3.5795   3.5823   3.5839   3.5857   3.5857   3.5860   4.6237
     4.6264   4.6264   4.6283   4.6311   4.6311   4.6321   4.6401   4.6943
     4.7178   4.7931   4.7966   4.7967   4.7967   4.7967   4.8000   4.8036
     4.8036   5.2507   5.2507   5.2611   5.2611   6.5777   6.5918   7.5057
     7.5105   7.9259   7.9438   7.9455   7.9455   7.9485   7.9651   7.9670
     7.9670   8.0112   8.0241   8.2751   8.3281   8.3281   8.3302   8.3324
     8.3340   8.3340   8.3714   8.4357   8.4405   8.4409   8.4409   8.4455

          k = 0.0000 0.0122 0.0122 ( 36919 PWs)   bands (ev):

   -18.2687 -18.2687 -18.2687 -18.2384 -18.2384  -5.7999  -5.2909  -5.2269
    -4.7941  -4.7071  -4.6994  -4.3468  -4.2223  -4.2207  -4.2196  -4.1835
    -4.1680  -3.9028  -3.8587  -3.7520  -3.7222  -3.4879  -3.4309  -3.3854
    -3.3483  -3.3482  -3.3471  -2.9421  -2.6814  -2.6456  -2.4411  -2.3900
    -2.3755  -2.3660  -2.0559  -2.0263  -1.8434  -1.6288  -1.2774  -1.2430
    -0.9690  -0.9143  -0.8978  -0.8846  -0.8713  -0.8684  -0.7813  -0.7648
    -0.4606  -0.4151  -0.4058  -0.2765  -0.2489  -0.2452  -0.2441   0.4654
     0.4901   0.7501   0.7768   0.7823   0.7826   1.2595   1.2802   1.6857
     1.8366   1.8418   1.8452   1.9036   1.9084   1.9686   1.9857   2.1321
     2.1370   2.3260   2.3319   2.3331   2.3357   2.3855   2.3864   2.5116
     2.6956   2.6968   2.9527   2.9560   2.9750   2.9765   3.0361   3.0374
     3.1251   3.1271   3.1885   3.1976   3.1990   3.1999   3.2284   3.2473
     3.2535   3.3144   3.4851   3.4855   3.7874   3.7894   3.9120   3.9153
     4.0366   4.0377   4.0713   4.0725   4.1300   4.2491   4.2551   4.2599
     4.2600   4.2639   4.2639   4.4017   4.4068   4.6068   4.6082   4.6130
     4.6190   4.7362   4.7412   4.8236   4.8265   4.8267   4.8292   4.9832
     4.9843   5.0049   5.3312   5.5354   6.0048   6.8023   6.9242   6.9355
     7.1799   7.1869   7.3276   7.3380   7.7042   7.7180   7.7525   7.8287
     7.8676   7.8906   7.9332   7.9346   8.2439   8.2688   8.2979   8.3129
     8.4400   8.4558   8.4563   8.4587   8.4877   8.5039   8.7356   8.8277

          k = 0.0000 0.0122-0.0244 ( 36970 PWs)   bands (ev):

   -18.2687 -18.2687 -18.2687 -18.2385 -18.2384  -5.6288  -5.5634  -5.0944
    -5.0316  -4.6290  -4.5190  -4.5163  -4.5157  -4.1788  -4.0770  -4.0749
    -4.0748  -4.0174  -3.9963  -3.5263  -3.4614  -3.4037  -3.3522  -3.3513
    -3.3509  -3.1104  -3.0790  -2.8980  -2.8417  -2.8399  -2.8399  -2.5658
    -2.5308  -2.4866  -2.4692  -1.9423  -1.9144  -1.4736  -1.4472  -0.9109
    -0.8613  -0.8200  -0.7963  -0.6971  -0.6566  -0.6553  -0.6552  -0.6369
    -0.6276  -0.6263  -0.6250  -0.2048  -0.1830   0.1190   0.1484   0.1488
     0.1492   0.2365   0.2526   0.9205   0.9398   1.3637   1.3935   1.3952
     1.3972   1.6374   1.6397   2.0491   2.0526   2.0553   2.0577   2.0745
     2.0761   2.1708   2.1715   2.5421   2.5567   2.5672   2.5717   2.8589
     2.8626   2.9356   2.9359   3.1073   3.1152   3.1188   3.1191   3.1954
     3.1979   3.2313   3.2314   3.3066   3.3104   3.3827   3.3859   3.5665
     3.5674   3.5692   3.5708   3.6491   3.6509   3.6903   3.6933   3.6954
     3.6959   3.8350   3.8383   3.8987   3.8990   3.9819   3.9909   3.9921
     3.9959   4.1432   4.1562   4.3912   4.3928   4.3942   4.3957   4.5683
     4.5716   4.5722   4.5772   4.7916   4.7929   4.7941   4.7982   4.9788
     4.9874   5.3442   5.3455   5.6397   5.6413   6.9754   6.9897   7.2844
     7.2939   7.7544   7.7682   7.8130   7.8166   7.8627   7.8750   8.1295
     8.1354   8.1938   8.2018   8.2844   8.2913   8.2955   8.3109   8.3391
     8.3691   8.3704   8.3828   8.3830   8.4025   8.5212   8.5275   8.5282

          k = 0.0000-0.0244-0.0244 ( 37020 PWs)   bands (ev):

   -18.2687 -18.2687 -18.2687 -18.2385 -18.2384  -5.4836  -5.3636  -5.3636
    -5.3624  -4.5407  -4.3516  -4.3469  -4.3469  -4.3457  -4.3457  -4.3457
    -4.3455  -3.5007  -3.3155  -3.3155  -3.3100  -3.3100  -3.3099  -3.3098
    -3.3098  -3.1181  -3.0314  -3.0314  -3.0295  -3.0293  -3.0291  -3.0287
    -3.0287  -2.2282  -2.1722  -2.1708  -2.1708  -1.2339  -1.1783  -1.1733
    -1.1733  -0.8136  -0.7499  -0.7499  -0.7479  -0.7431  -0.7425  -0.7421
    -0.7421  -0.0069   0.0866   0.0879   0.0879   0.0881   0.0881   0.0884
     0.0887   0.7038   0.7522   0.7522   0.7535   0.7572   0.7587   0.7587
     0.7619   1.7255   1.7255   1.7265   1.7313   2.5670   2.5839   2.5841
     2.5841   2.5870   2.5907   2.5907   2.5908   2.6740   2.6740   2.6772
     2.6780   2.6780   2.6801   2.6803   2.6803   3.2842   3.2873   3.2880
     3.2880   3.2901   3.2901   3.2913   3.2920   3.3320   3.3575   3.3647
     3.3647   3.6322   3.6322   3.6341   3.6358   3.8900   3.8900   3.8941
     3.8945   3.8952   3.8952   3.8979   3.8989   4.1918   4.2093   4.2101
     4.2101   4.2127   4.2132   4.2132   4.2215   4.4173   4.4184   4.4184
     4.4302   4.4704   4.4704   4.4713   4.4731   4.4732   4.4746   4.4822
     4.4822   5.7689   5.7702   5.7806   5.7806   7.1682   7.1682   7.1694
     7.1896   7.9059   7.9262   7.9284   7.9284   7.9341   7.9431   7.9508
     7.9508   8.2029   8.2232   8.2242   8.2242   8.2251   8.2298   8.2298
     8.2660   8.6098   8.6171   8.6186   8.6187   8.6195   8.6371   8.6374

          k = 0.0122 0.0122 0.0122 ( 36954 PWs)   bands (ev):

   -18.2687 -18.2687 -18.2687 -18.2384 -18.2384  -5.7335  -5.2541  -5.1623
    -5.1623  -4.7343  -4.6531  -4.6531  -4.2594  -4.1660  -4.1120  -4.1120
    -3.8084  -3.6872  -3.6872  -3.6843  -3.6841  -3.6841  -3.5189  -3.4818
    -3.4818  -3.0334  -2.9782  -2.9782  -2.6735  -2.6136  -2.6136  -2.4992
    -2.4350  -2.4350  -2.4336  -2.4334  -2.4334  -0.9982  -0.8815  -0.8815
    -0.8786  -0.8780  -0.8780  -0.8010  -0.7768  -0.7768  -0.7213  -0.7125
    -0.7125  -0.6185  -0.5940  -0.5940   0.0801   0.1542   0.2020   0.2020
     0.2046   0.2061   0.2061   1.0752   1.1077   1.1077   1.3981   1.4163
     1.4163   1.9665   1.9674   1.9674   1.9730   1.9748   1.9748   2.0344
     2.0404   2.0404   2.6037   2.6061   2.6061   2.7040   2.7135   2.7135
     2.7175   2.7200   2.7200   2.7988   2.8211   2.8211   3.0828   3.0844
     3.0844   3.0860   3.0866   3.0866   3.3706   3.3743   3.3747   3.3747
     3.3761   3.3761   3.7281   3.7336   3.7336   3.7616   3.7649   3.7649
     3.8499   3.8510   3.8510   4.1242   4.1243   4.1243   4.1259   4.1259
     4.1267   4.1733   4.1751   4.1751   4.4446   4.4968   4.5017   4.5017
     4.7391   4.7443   4.7443   4.8069   4.8069   4.8103   4.9779   4.9779
     5.2877   5.2943   5.2943   5.7773   5.7773   6.8516   6.8694   6.8694
     7.3229   7.3358   7.3358   7.6027   7.8052   7.8269   7.8269   7.9420
     7.9507   7.9507   8.1324   8.1457   8.1457   8.1550   8.1801   8.1801
     8.3654   8.3656   8.3656   8.3658   8.3883   8.3883   8.4783   8.6676

          k = 0.0122 0.0122-0.0244 ( 36904 PWs)   bands (ev):

   -18.2687 -18.2687 -18.2687 -18.2384 -18.2384  -5.5656  -5.4968  -5.0778
    -4.9709  -4.9698  -4.9685  -4.5324  -4.4813  -4.0571  -3.9483  -3.9471
    -3.9462  -3.6782  -3.5928  -3.5897  -3.5896  -3.4419  -3.4140  -3.2150
    -3.1627  -3.1116  -3.0743  -3.0709  -3.0709  -2.7181  -2.6481  -2.6479
    -2.6467  -2.5629  -2.5313  -2.5286  -2.5286  -0.9407  -0.8193  -0.8163
    -0.8161  -0.8128  -0.8092  -0.8054  -0.8046  -0.7746  -0.7709  -0.3973
    -0.3423  -0.3387  -0.3387  -0.3146  -0.3075  -0.3026  -0.3011   0.1561
     0.1770   0.6486   0.6905   0.6926   0.6933   0.7184   0.7238   1.8958
     1.9018   1.9030   1.9046   2.0839   2.1091   2.1135   2.1166   2.1954
     2.2006   2.2016   2.2027   2.2916   2.2930   2.2958   2.2980   2.8279
     2.8336   2.8889   2.8934   3.0917   3.0992   3.0992   3.1025   3.3046
     3.3065   3.3067   3.3080   3.3102   3.3155   3.3190   3.3194   3.4838
     3.4872   3.4885   3.4912   3.5528   3.5575   3.6311   3.6417   3.7154
     3.7161   3.7172   3.7182   3.9622   3.9623   3.9650   3.9665   4.2802
     4.2812   4.2822   4.2840   4.2875   4.2884   4.2901   4.2983   4.3016
     4.3045   4.5146   4.5205   5.1689   5.1745   5.2371   5.2387   5.2425
     5.2467   5.2777   5.2891   5.5117   5.5157   7.0355   7.0489   7.3476
     7.3651   7.3660   7.3672   7.8157   7.8408   7.8412   7.8445   7.8855
     7.9003   7.9089   7.9120   8.0011   8.0108   8.0298   8.0529   8.2902
     8.3006   8.3292   8.3479   8.3484   8.3518   8.4799   8.4925   8.5621

          k = 0.0122-0.0244-0.0244 ( 36900 PWs)   bands (ev):

   -18.2687 -18.2687 -18.2687 -18.2384 -18.2384  -5.4257  -5.2984  -5.2984
    -5.2973  -4.8763  -4.7841  -4.7841  -4.7832  -3.9281  -3.8041  -3.8041
    -3.8037  -3.4650  -3.2803  -3.2803  -3.2752  -3.2751  -3.2751  -3.2750
    -3.2750  -3.1497  -3.0810  -3.0810  -3.0785  -3.0783  -3.0782  -3.0779
    -3.0779  -2.5989  -2.5488  -2.5487  -2.5487  -0.9257  -0.8498  -0.8487
    -0.8487  -0.6910  -0.6293  -0.6293  -0.6275  -0.6235  -0.6229  -0.6225
    -0.6225  -0.1272  -0.0404  -0.0401  -0.0401  -0.0383  -0.0380  -0.0378
    -0.0378   0.1669   0.1877   0.1877   0.1896   1.3715   1.3964   1.3964
     1.3969   1.9291   1.9308   1.9308   1.9361   2.5246   2.5430   2.5430
     2.5430   2.5479   2.5504   2.5504   2.5511   2.5601   2.5601   2.5626
     2.5639   2.5646   2.5659   2.5659   2.5660   2.8461   2.8668   2.8707
     2.8707   3.3024   3.3122   3.3122   3.3155   3.5414   3.5420   3.5424
     3.5424   3.5457   3.5464   3.5464   3.5476   3.6882   3.6882   3.6897
     3.6913   3.9176   3.9176   3.9211   3.9213   3.9224   3.9224   3.9234
     3.9254   4.1202   4.1215   4.1215   4.1216   4.8684   4.8705   4.8705
     4.8770   4.8828   4.8843   4.8900   4.8900   5.0024   5.0068   5.0068
     5.0131   5.6353   5.6367   5.6464   5.6464   7.2488   7.2505   7.2505
     7.2713   7.5459   7.5670   7.5670   7.5671   7.5690   7.5877   7.5877
     7.5888   7.8506   7.8540   7.8540   7.8732   8.0261   8.0462   8.0462
     8.0462   8.0463   8.0672   8.0672   8.0684   8.1381   8.1725   8.1725

          k =-0.0244-0.0244-0.0244 ( 37056 PWs)   bands (ev):

   -18.2687 -18.2687 -18.2687 -18.2385 -18.2385  -5.3168  -5.1051  -5.1051
    -5.1051  -5.1031  -5.1028  -5.1028  -5.1028  -3.6153  -3.1922  -3.1922
    -3.1922  -3.1841  -3.1841  -3.1841  -3.1840  -3.1840  -3.1837  -3.1837
    -3.1837  -3.1836  -3.1833  -3.1833  -3.1833  -3.1831  -3.1831  -3.1831
    -3.1830  -3.1830  -3.1830  -3.1830  -3.1830  -0.5916  -0.3473  -0.3473
    -0.3473  -0.3352  -0.3352  -0.3352  -0.3346  -0.3345  -0.3345  -0.3345
    -0.3345  -0.3345  -0.3344  -0.3344  -0.3344  -0.3337  -0.3337  -0.3337
    -0.3337  -0.3337  -0.3322  -0.3322  -0.3322   2.0596   2.1100   2.1100
     2.1100   2.1130   2.1184   2.1184   2.1184   2.4672   2.4885   2.4885
     2.4885   2.5019   2.5019   2.5019   2.5024   2.5024   2.5024   2.5028
     2.5028   2.5028   2.5029   2.5029   2.5029   2.5029   2.5029   2.5030
     2.5080   2.5080   2.5080   2.5086   2.5086   3.8481   3.8481   3.8481
     3.8500   3.8500   3.8500   3.8540   3.8540   3.8540   3.8546   3.8548
     3.8548   3.8548   3.8551   3.8551   3.8552   3.8552   3.8552   3.8553
     3.8574   3.8574   3.8611   3.8611   3.8611   5.2992   5.2992   5.2992
     5.3003   5.3003   5.3003   5.3007   5.3007   5.3012   5.3012   5.3012
     5.3022   5.3022   5.3241   5.3241   5.3241   7.3971   7.4868   7.4868
     7.4868   7.4884   7.4896   7.4896   7.4896   7.4900   7.4900   7.4900
     7.4900   7.4900   7.4905   7.4905   7.4905   7.4911   7.4911   7.4911
     7.5329   7.5329   7.5329   7.5398   7.5398   7.9112   7.9824   7.9824

     the Fermi energy is     6.4137 ev

!    total energy              =    -813.92705675 Ry
     Harris-Foulkes estimate   =    -813.92705675 Ry
     estimated scf accuracy    <          2.6E-11 Ry

     The total energy is the sum of the following terms:

     one-electron contribution =     -42.89079141 Ry
     hartree contribution      =     147.69740522 Ry
     xc contribution           =    -325.42123674 Ry
     ewald contribution        =    -593.31243382 Ry
     smearing contrib. (-TS)   =      -0.00000000 Ry

     convergence has been achieved in  13 iterations

     Forces acting on atoms (cartesian axes, Ry/au):

     atom    1 type  1   force =     0.00000000    0.00000000    0.00000000
     atom    2 type  2   force =     0.00000000    0.00000000    0.00000000
     atom    3 type  2   force =     0.00000000    0.00000000    0.00000000
     atom    4 type  2   force =     0.00000000    0.00000000    0.00000000
     atom    5 type  2   force =     0.00000000    0.00000000    0.00000000
     atom    6 type  2   force =     0.00000000   -0.00000000    0.00000000
     atom    7 type  2   force =     0.00000000    0.00000000    0.00000000
     atom    8 type  2   force =     0.00000000   -0.00000000    0.00000000
     atom    9 type  2   force =     0.00038749   -0.00009479   -0.00009479
     atom   10 type  2   force =    -0.00038749   -0.00009479    0.00009479
     atom   11 type  2   force =    -0.00038749    0.00009479   -0.00009479
     atom   12 type  2   force =     0.00038749    0.00009479    0.00009479
     atom   13 type  2   force =    -0.00002991    0.00002996    0.00002996
     atom   14 type  2   force =     0.00002991    0.00002996   -0.00002996
     atom   15 type  2   force =     0.00002991   -0.00002996    0.00002996
     atom   16 type  2   force =    -0.00002991   -0.00002996   -0.00002996
     atom   17 type  2   force =    -0.00009479    0.00038749   -0.00009479
     atom   18 type  2   force =    -0.00009479   -0.00038749    0.00009479
     atom   19 type  2   force =     0.00002996   -0.00002991    0.00002996
     atom   20 type  2   force =     0.00002996    0.00002991   -0.00002996
     atom   21 type  2   force =     0.00009479   -0.00038749   -0.00009479
     atom   22 type  2   force =     0.00009479    0.00038749    0.00009479
     atom   23 type  2   force =    -0.00002996    0.00002991    0.00002996
     atom   24 type  2   force =    -0.00002996   -0.00002991   -0.00002996
     atom   25 type  2   force =    -0.00009479   -0.00009479    0.00038749
     atom   26 type  2   force =     0.00002996    0.00002996   -0.00002991
     atom   27 type  2   force =    -0.00009479    0.00009479   -0.00038749
     atom   28 type  2   force =     0.00002996   -0.00002996    0.00002991
     atom   29 type  2   force =     0.00009479   -0.00009479   -0.00038749
     atom   30 type  2   force =    -0.00002996    0.00002996    0.00002991
     atom   31 type  2   force =     0.00009479    0.00009479    0.00038749
     atom   32 type  2   force =    -0.00002996   -0.00002996   -0.00002991
     atom   33 type  2   force =     0.00002280    0.00002280   -0.00000836
     atom   34 type  2   force =    -0.00002040   -0.00002040    0.00002040
     atom   35 type  2   force =    -0.00000115    0.00001482   -0.00001482
     atom   36 type  2   force =     0.00002280    0.00000836   -0.00002280
     atom   37 type  2   force =     0.00001482   -0.00000115   -0.00001482
     atom   38 type  2   force =     0.00000836    0.00002280   -0.00002280
     atom   39 type  2   force =    -0.00886371   -0.00886371    0.00886371
     atom   40 type  2   force =     0.00001482    0.00001482    0.00000115
     atom   41 type  2   force =     0.00002280   -0.00000836    0.00002280
     atom   42 type  2   force =    -0.00000115   -0.00001482    0.00001482
     atom   43 type  2   force =    -0.00002040    0.00002040   -0.00002040
     atom   44 type  2   force =     0.00002280   -0.00002280    0.00000836
     atom   45 type  2   force =     0.00001482   -0.00001482   -0.00000115
     atom   46 type  2   force =    -0.00886371    0.00886371   -0.00886371
     atom   47 type  2   force =     0.00000836   -0.00002280    0.00002280
     atom   48 type  2   force =     0.00001482    0.00000115    0.00001482
     atom   49 type  2   force =    -0.00000836    0.00002280    0.00002280
     atom   50 type  2   force =    -0.00001482   -0.00000115    0.00001482
     atom   51 type  2   force =    -0.00001482    0.00001482   -0.00000115
     atom   52 type  2   force =     0.00886371   -0.00886371   -0.00886371
     atom   53 type  2   force =     0.00002040   -0.00002040   -0.00002040
     atom   54 type  2   force =    -0.00002280    0.00002280    0.00000836
     atom   55 type  2   force =    -0.00002280    0.00000836    0.00002280
     atom   56 type  2   force =     0.00000115    0.00001482    0.00001482
     atom   57 type  2   force =     0.00886371    0.00886371    0.00886371
     atom   58 type  2   force =    -0.00001482   -0.00001482    0.00000115
     atom   59 type  2   force =    -0.00001482    0.00000115   -0.00001482
     atom   60 type  2   force =    -0.00000836   -0.00002280   -0.00002280
     atom   61 type  2   force =     0.00000115   -0.00001482   -0.00001482
     atom   62 type  2   force =    -0.00002280   -0.00000836   -0.00002280
     atom   63 type  2   force =    -0.00002280   -0.00002280   -0.00000836
     atom   64 type  2   force =     0.00002040    0.00002040    0.00002040

     Total force =     0.030739     Total SCF correction =     0.000008


     Computing stress (Cartesian axis) and pressure

          total   stress  (Ry/bohr**3)                   (kbar)     P=  -14.28
  -0.00009705   0.00000000   0.00000000        -14.28      0.00      0.00
   0.00000000  -0.00009705   0.00000000          0.00    -14.28      0.00
   0.00000000   0.00000000  -0.00009705          0.00      0.00    -14.28


     BFGS Geometry Optimization

     number of scf cycles    =   1
     number of bfgs steps    =   0

     enthalpy new            =    -813.9270567459 Ry

     new trust radius        =       0.0451204351 bohr
     new conv_thr            =            1.0E-10 Ry

     new unit-cell volume =   8583.98960 a.u.^3 (  1272.01601 Ang^3 )
     density =      2.40461 g/cm^3

CELL_PARAMETERS (alat=  1.00000000)
  20.475274255   0.000000000   0.000000000
   0.000000000  20.475274255   0.000000000
   0.000000000   0.000000000  20.475274255

ATOMIC_POSITIONS (crystal)
Ge       0.000000000   0.000000000   0.000000000
Si       0.000000000   0.000000000   0.500000000
Si       0.000000000   0.500000000   0.000000000
Si       0.000000000   0.500000000   0.500000000
Si       0.500000000   0.000000000   0.000000000
Si       0.500000000  -0.000000000   0.500000000
Si       0.500000000   0.500000000   0.000000000
Si       0.500000000   0.500000000   0.500000000
Si       0.000018879   0.249995382   0.249995382
Si      -0.000018879   0.249995382   0.750004618
Si      -0.000018879   0.750004618   0.249995382
Si       0.000018879   0.750004618   0.750004618
Si       0.499998543   0.250001459   0.250001459
Si       0.500001457   0.250001459   0.749998541
Si       0.500001457   0.749998541   0.250001459
Si       0.499998543   0.749998541   0.749998541
Si       0.249995382   0.000018879   0.249995382
Si       0.249995382  -0.000018879   0.750004618
Si       0.250001459   0.499998543   0.250001459
Si       0.250001459   0.500001457   0.749998541
Si       0.750004618  -0.000018879   0.249995382
Si       0.750004618   0.000018879   0.750004618
Si       0.749998541   0.500001457   0.250001459
Si       0.749998541   0.499998543   0.749998541
Si       0.249995382   0.249995382   0.000018879
Si       0.250001459   0.250001459   0.499998543
Si       0.249995382   0.750004618  -0.000018879
Si       0.250001459   0.749998541   0.500001457
Si       0.750004618   0.249995382  -0.000018879
Si       0.749998541   0.250001459   0.500001457
Si       0.750004618   0.750004618   0.000018879
Si       0.749998541   0.749998541   0.499998543
Si       0.375001111   0.375001111   0.124999593
Si       0.374999006   0.374999006   0.625000994
Si       0.374999944   0.875000722   0.124999278
Si       0.375001111   0.875000407   0.624998889
Si       0.875000722   0.374999944   0.124999278
Si       0.875000407   0.375001111   0.624998889
Si       0.874568152   0.874568152   0.125431848
Si       0.875000722   0.875000722   0.625000056
Si       0.375001111   0.124999593   0.375001111
Si       0.374999944   0.124999278   0.875000722
Si       0.374999006   0.625000994   0.374999006
Si       0.375001111   0.624998889   0.875000407
Si       0.875000722   0.124999278   0.374999944
Si       0.874568152   0.125431848   0.874568152
Si       0.875000407   0.624998889   0.375001111
Si       0.875000722   0.625000056   0.875000722
Si       0.124999593   0.375001111   0.375001111
Si       0.124999278   0.374999944   0.875000722
Si       0.124999278   0.875000722   0.374999944
Si       0.125431848   0.874568152   0.874568152
Si       0.625000994   0.374999006   0.374999006
Si       0.624998889   0.375001111   0.875000407
Si       0.624998889   0.875000407   0.375001111
Si       0.625000056   0.875000722   0.875000722
Si       0.125431848   0.125431848   0.125431848
Si       0.124999278   0.124999278   0.625000056
Si       0.124999278   0.625000056   0.124999278
Si       0.124999593   0.624998889   0.624998889
Si       0.625000056   0.124999278   0.124999278
Si       0.624998889   0.124999593   0.624998889
Si       0.624998889   0.624998889   0.124999593
Si       0.625000994   0.625000994   0.625000994



     Writing output data file scf_b.save
     NEW-OLD atomic charge density approx. for the potential
     extrapolated charge  264.05479, renormalised to  266.00000

     total cpu time spent up to now is       78.4 secs

     per-process dynamical memory:   101.6 Mb

     Self-consistent Calculation

     iteration #  1     ecut=    40.00 Ry     beta=0.70
     Davidson diagonalization with overlap
     ethr =  1.00E-06,  avg # of iterations =  9.2

     total cpu time spent up to now is       86.4 secs

     total energy              =    -813.88933206 Ry
     Harris-Foulkes estimate   =    -814.27902237 Ry
     estimated scf accuracy    <       0.03543066 Ry

     iteration #  2     ecut=    40.00 Ry     beta=0.70
     Davidson diagonalization with overlap
     ethr =  1.33E-05,  avg # of iterations =  7.0

     total cpu time spent up to now is       92.4 secs

     total energy              =    -813.88817540 Ry
     Harris-Foulkes estimate   =    -814.01846877 Ry
     estimated scf accuracy    <       0.51239129 Ry

     iteration #  3     ecut=    40.00 Ry     beta=0.70
     Davidson diagonalization with overlap
     ethr =  1.33E-05,  avg # of iterations =  5.5

     total cpu time spent up to now is       96.9 secs

     total energy              =    -813.93366525 Ry
     Harris-Foulkes estimate   =    -813.93922014 Ry
     estimated scf accuracy    <       0.02367057 Ry

     iteration #  4     ecut=    40.00 Ry     beta=0.70
     Davidson diagonalization with overlap
     ethr =  8.90E-06,  avg # of iterations =  2.0

     total cpu time spent up to now is       98.9 secs

     total energy              =    -813.93394550 Ry
     Harris-Foulkes estimate   =    -813.93530731 Ry
     estimated scf accuracy    <       0.01250909 Ry

     iteration #  5     ecut=    40.00 Ry     beta=0.70
     Davidson diagonalization with overlap
     ethr =  4.70E-06,  avg # of iterations =  1.0

     total cpu time spent up to now is      100.7 secs

     total energy              =    -813.93296477 Ry
     Harris-Foulkes estimate   =    -813.93415558 Ry
     estimated scf accuracy    <       0.00791083 Ry

     iteration #  6     ecut=    40.00 Ry     beta=0.70
     Davidson diagonalization with overlap
     ethr =  2.97E-06,  avg # of iterations =  1.8

     total cpu time spent up to now is      102.7 secs

     total energy              =    -813.93263365 Ry
     Harris-Foulkes estimate   =    -813.93316224 Ry
     estimated scf accuracy    <       0.00320806 Ry

     iteration #  7     ecut=    40.00 Ry     beta=0.70
     Davidson diagonalization with overlap
     ethr =  1.21E-06,  avg # of iterations =  3.7

     total cpu time spent up to now is      106.2 secs

     total energy              =    -813.93236008 Ry
     Harris-Foulkes estimate   =    -813.93275063 Ry
     estimated scf accuracy    <       0.00107420 Ry

     iteration #  8     ecut=    40.00 Ry     beta=0.70
     Davidson diagonalization with overlap
     ethr =  4.04E-07,  avg # of iterations =  3.8

     total cpu time spent up to now is      109.2 secs

     total energy              =    -813.93254184 Ry
     Harris-Foulkes estimate   =    -813.93254403 Ry
     estimated scf accuracy    <       0.00000800 Ry

     iteration #  9     ecut=    40.00 Ry     beta=0.70
     Davidson diagonalization with overlap
     ethr =  3.01E-09,  avg # of iterations =  3.4

     total cpu time spent up to now is      112.2 secs

     total energy              =    -813.93254267 Ry
     Harris-Foulkes estimate   =    -813.93254483 Ry
     estimated scf accuracy    <       0.00000669 Ry

     iteration # 10     ecut=    40.00 Ry     beta=0.70
     Davidson diagonalization with overlap
     ethr =  2.52E-09,  avg # of iterations =  2.0

     total cpu time spent up to now is      114.3 secs

     total energy              =    -813.93254374 Ry
     Harris-Foulkes estimate   =    -813.93254390 Ry
     estimated scf accuracy    <       0.00000037 Ry

     iteration # 11     ecut=    40.00 Ry     beta=0.70
     Davidson diagonalization with overlap
     ethr =  1.38E-10,  avg # of iterations =  2.9

     total cpu time spent up to now is      116.8 secs

     total energy              =    -813.93254382 Ry
     Harris-Foulkes estimate   =    -813.93254383 Ry
     estimated scf accuracy    <       0.00000003 Ry

     iteration # 12     ecut=    40.00 Ry     beta=0.70
     Davidson diagonalization with overlap
     ethr =  1.14E-11,  avg # of iterations =  2.0

     total cpu time spent up to now is      119.2 secs

     total energy              =    -813.93254383 Ry
     Harris-Foulkes estimate   =    -813.93254383 Ry
     estimated scf accuracy    <          9.9E-10 Ry

     iteration # 13     ecut=    40.00 Ry     beta=0.70
     Davidson diagonalization with overlap
     ethr =  3.74E-13,  avg # of iterations =  3.0

     total cpu time spent up to now is      122.2 secs

     total energy              =    -813.93254383 Ry
     Harris-Foulkes estimate   =    -813.93254383 Ry
     estimated scf accuracy    <          2.9E-10 Ry

     iteration # 14     ecut=    40.00 Ry     beta=0.70
     Davidson diagonalization with overlap
     ethr =  1.08E-13,  avg # of iterations =  2.0

     total cpu time spent up to now is      124.6 secs

     End of self-consistent calculation

          k = 0.0000 0.0000 0.0000 ( 37073 PWs)   bands (ev):

   -18.1816 -18.1816 -18.1816 -18.1516 -18.1516  -5.9062  -4.9479  -4.7919
    -4.7919  -4.7919  -4.7882  -4.7882  -4.0583  -3.8248  -3.8248  -3.8248
    -3.8194  -3.8194  -3.8194  -3.8190  -3.8190  -3.8190  -3.8176  -3.8176
    -3.5641  -3.5235  -3.5235  -3.5235  -1.8843  -1.7111  -1.7111  -1.7111
    -1.7099  -1.7099  -1.6269  -1.5411  -1.5411  -1.5411  -1.5407  -1.5407
    -1.5407  -1.5388  -1.5388  -1.5385  -1.5385  -1.5385  -0.9163  -0.8943
    -0.8943  -0.8943   0.5083   0.6278   0.6278   0.6278   0.6287   0.6287
     0.6287   0.6314   0.6314   0.6360   0.6360   0.6360   2.2216   2.2216
     2.2216   2.2250   2.2250   2.2250   2.2277   2.2277   2.2277   2.2283
     2.2322   2.2322   2.3154   2.3248   2.3248   2.3248   2.3291   2.3291
     2.3295   2.3295   2.3295   2.3318   2.3318   2.3318   2.5460   2.6035
     2.6035   2.6089   2.6089   2.6089   3.2611   3.2611   3.2611   3.2631
     3.2631   3.2631   4.2280   4.2280   4.2280   4.2286   4.2286   4.2286
     4.2304   4.2304   4.2304   4.2410   4.2410   4.2410   4.7956   4.7956
     4.7956   4.8014   4.8014   4.8014   4.8014   4.8053   4.8053   4.8127
     4.8127   4.8127   4.9312   4.9312   4.9312   4.9312   4.9312   4.9450
     4.9450   4.9450   6.1445   6.1445   6.1445   6.7036   6.7441   6.7441
     6.7441   6.7478   6.7478   7.1550   7.1799   7.1799   7.1897   7.1897
     7.1897   7.5341   7.5940   7.5940   7.5940   8.4587   8.5066   8.5066
     8.5066   8.5068   8.5068   8.5068   8.5326   8.5326   8.5326   8.5358

          k = 0.0000 0.0000 0.0122 ( 36941 PWs)   bands (ev):

   -18.1816 -18.1815 -18.1815 -18.1516 -18.1516  -5.8381  -5.2934  -4.8383
    -4.7291  -4.7291  -4.7255  -4.3383  -4.2362  -4.2362  -4.2331  -4.1983
    -3.8680  -3.7844  -3.7844  -3.7839  -3.6300  -3.5757  -3.5757  -3.5756
    -3.3605  -3.3127  -3.3127  -3.3105  -2.6560  -2.2066  -2.1328  -2.1328
    -2.1312  -1.7598  -1.6881  -1.6881  -1.6872  -1.6011  -1.5678  -1.5672
    -1.5672  -1.0374  -0.9853  -0.9853  -0.9835  -0.7565  -0.7292  -0.7286
    -0.7286  -0.7052   0.0268   0.0713   0.0713   0.0723   0.2533   0.2788
     0.2822   0.2822   1.1867   1.2223   1.2238   1.2238   1.4719   1.9114
     1.9114   1.9140   1.9145   1.9932   1.9956   1.9956   1.9976   2.3200
     2.3482   2.3482   2.3484   2.3535   2.3568   2.3615   2.3615   2.7742
     2.7778   2.7787   2.7787   2.7842   2.7846   2.7846   2.7870   2.8042
     2.8076   2.8092   2.8092   3.0664   3.0665   3.0665   3.0670   3.3243
     3.3243   3.7141   3.8147   3.8147   3.9495   3.9511   3.9571   3.9571
     4.2785   4.2794   4.2794   4.2848   4.3951   4.3951   4.3970   4.4032
     4.5033   4.5072   4.5072   4.5107   4.7463   4.7463   4.8147   4.8217
     4.8252   4.8252   4.8981   4.8981   4.9007   4.9061   4.9094   4.9123
     4.9218   4.9218   5.7133   5.8768   5.8768   6.6073   6.8475   7.0518
     7.0952   7.1124   7.1124   7.1147   7.5668   7.5816   7.5927   7.5927
     7.6158   7.8984   7.9489   7.9489   7.9539   8.2896   8.4579   8.4883
     8.4883   8.4921   8.4999   8.5172   8.5172   8.5253   8.5507   9.0248

          k = 0.0000 0.0000-0.0244 ( 36906 PWs)   bands (ev):

   -18.1815 -18.1815 -18.1815 -18.1516 -18.1515  -5.6604  -5.6033  -4.7335
    -4.5448  -4.5448  -4.5413  -4.5401  -4.5395  -4.5395  -4.5374  -3.8436
    -3.6894  -3.6894  -3.6888  -3.6856  -3.6856  -3.6856  -3.6843  -3.4901
    -3.4722  -2.8564  -2.7416  -2.7381  -2.7381  -2.7372  -2.7372  -2.7358
    -2.7357  -1.7424  -1.6320  -1.6320  -1.6299  -1.6292  -1.6275  -1.6275
    -1.6274  -0.5779  -0.4591  -0.4591  -0.4578  -0.4578  -0.4574  -0.4563
    -0.4540  -0.3259  -0.2939  -0.2918  -0.2918  -0.2889  -0.2883  -0.2869
    -0.2869   0.3502   0.3725   1.7502   1.8238   1.8238   1.8246   1.8252
     1.8295   1.8317   1.8317   1.8435   1.8435   1.8457   1.8467   1.8467
     1.8468   1.8471   1.8487   2.6719   2.6719   2.6724   2.6746   2.6756
     2.6777   2.6777   2.6812   3.3770   3.3824   3.3827   3.3850   3.3850
     3.3859   3.3905   3.3905   3.5063   3.5063   3.5114   3.5114   3.5180
     3.5187   3.5187   3.5211   3.5212   3.5222   3.5222   3.5262   3.6294
     3.6423   3.6428   3.6440   3.6440   3.6490   3.6490   3.6538   4.6905
     4.6927   4.6927   4.6948   4.6981   4.6981   4.7008   4.7109   4.7777
     4.8019   4.8574   4.8625   4.8652   4.8656   4.8656   4.8681   4.8773
     4.8773   5.3204   5.3204   5.3309   5.3309   6.6417   6.6580   7.5703
     7.5741   7.9940   8.0161   8.0178   8.0178   8.0198   8.0383   8.0383
     8.0401   8.0869   8.1004   8.3688   8.4200   8.4200   8.4233   8.4269
     8.4269   8.4269   8.4704   8.5163   8.5163   8.5186   8.5208   8.5208

          k = 0.0000 0.0122 0.0122 ( 36919 PWs)   bands (ev):

   -18.1816 -18.1815 -18.1815 -18.1516 -18.1515  -5.7705  -5.2548  -5.1974
    -4.7513  -4.6744  -4.6672  -4.2995  -4.1865  -4.1844  -4.1827  -4.1475
    -4.1316  -3.8590  -3.8191  -3.7108  -3.6822  -3.4400  -3.3867  -3.3402
    -3.3057  -3.3048  -3.3034  -2.8947  -2.6335  -2.5992  -2.3884  -2.3396
    -2.3251  -2.3163  -2.0022  -1.9729  -1.7900  -1.5755  -1.2206  -1.1874
    -0.9133  -0.8572  -0.8410  -0.8255  -0.8242  -0.8235  -0.7222  -0.7058
    -0.4036  -0.3657  -0.3583  -0.2206  -0.1922  -0.1912  -0.1895   0.5295
     0.5547   0.8091   0.8372   0.8418   0.8426   1.3310   1.3508   1.7288
     1.8849   1.8883   1.9056   1.9496   1.9532   2.0384   2.0560   2.1799
     2.1822   2.3785   2.3844   2.3851   2.3869   2.4348   2.4355   2.5613
     2.7452   2.7468   3.0070   3.0074   3.0269   3.0291   3.0915   3.0922
     3.1815   3.1817   3.2512   3.2549   3.2569   3.2578   3.3031   3.3093
     3.3238   3.3727   3.5422   3.5443   3.8480   3.8494   3.9797   3.9804
     4.1010   4.1022   4.1314   4.1371   4.1936   4.3119   4.3189   4.3228
     4.3243   4.3282   4.3291   4.4653   4.4704   4.6739   4.6743   4.6826
     4.6908   4.8027   4.8116   4.8905   4.8958   4.8966   4.8990   5.0527
     5.0568   5.0821   5.4039   5.6070   6.0812   6.8657   6.9899   7.0028
     7.2498   7.2573   7.3916   7.4056   7.7772   7.7922   7.8255   7.9011
     7.9661   7.9891   8.0084   8.0149   8.3413   8.3683   8.3709   8.3894
     8.5202   8.5327   8.5358   8.5368   8.5600   8.5773   8.8159   8.9108

          k = 0.0000 0.0122-0.0244 ( 36970 PWs)   bands (ev):

   -18.1816 -18.1816 -18.1816 -18.1516 -18.1515  -5.5952  -5.5357  -5.0576
    -5.0005  -4.5842  -4.4861  -4.4816  -4.4811  -4.1331  -4.0404  -4.0369
    -4.0362  -3.9796  -3.9583  -3.4788  -3.4209  -3.3587  -3.3089  -3.3068
    -3.3059  -3.0636  -3.0348  -2.8482  -2.7939  -2.7930  -2.7923  -2.5167
    -2.4828  -2.4361  -2.4191  -1.8882  -1.8608  -1.4194  -1.3926  -0.8549
    -0.8036  -0.7611  -0.7368  -0.6474  -0.6077  -0.6070  -0.6067  -0.5846
    -0.5716  -0.5715  -0.5697  -0.1433  -0.1197   0.1717   0.2006   0.2016
     0.2024   0.3007   0.3193   0.9888   1.0075   1.4274   1.4566   1.4597
     1.4624   1.6799   1.6811   2.0993   2.1022   2.1036   2.1048   2.1197
     2.1213   2.2174   2.2195   2.6126   2.6178   2.6233   2.6285   2.9109
     2.9145   2.9892   2.9893   3.1689   3.1752   3.1775   3.1810   3.2508
     3.2549   3.2871   3.2882   3.3611   3.3661   3.4393   3.4439   3.6231
     3.6247   3.6274   3.6289   3.7080   3.7108   3.7532   3.7562   3.7563
     3.7575   3.8940   3.8983   3.9594   3.9598   4.0477   4.0559   4.0564
     4.0639   4.2205   4.2335   4.4555   4.4561   4.4612   4.4620   4.6346
     4.6379   4.6395   4.6462   4.8598   4.8602   4.8635   4.8697   5.0459
     5.0554   5.4177   5.4181   5.7145   5.7166   7.0423   7.0588   7.3518
     7.3613   7.8246   7.8393   7.8810   7.8828   7.9355   7.9482   8.2059
     8.2111   8.2656   8.2738   8.3634   8.3687   8.3762   8.3910   8.4349
     8.4613   8.4619   8.4657   8.4783   8.4923   8.6102   8.6138   8.6147

          k = 0.0000-0.0244-0.0244 ( 37020 PWs)   bands (ev):

   -18.1816 -18.1816 -18.1816 -18.1516 -18.1516  -5.4442  -5.3349  -5.3349
    -5.3331  -4.4892  -4.3180  -4.3114  -4.3114  -4.3097  -4.3097  -4.3095
    -4.3088  -3.4456  -3.2739  -3.2739  -3.2680  -3.2679  -3.2671  -3.2669
    -3.2669  -3.0689  -2.9856  -2.9856  -2.9828  -2.9819  -2.9817  -2.9814
    -2.9814  -2.1743  -2.1199  -2.1181  -2.1181  -1.1792  -1.1215  -1.1185
    -1.1185  -0.7666  -0.6976  -0.6976  -0.6968  -0.6953  -0.6937  -0.6937
    -0.6930   0.0571   0.1511   0.1516   0.1520   0.1520   0.1529   0.1546
     0.1546   0.7599   0.8108   0.8108   0.8130   0.8130   0.8155   0.8155
     0.8199   1.7677   1.7677   1.7694   1.7732   2.6233   2.6410   2.6411
     2.6411   2.6417   2.6439   2.6475   2.6475   2.7260   2.7260   2.7270
     2.7290   2.7315   2.7317   2.7317   2.7318   3.3382   3.3419   3.3428
     3.3428   3.3460   3.3460   3.3475   3.3476   3.4058   3.4311   3.4391
     3.4391   3.6918   3.6938   3.6938   3.6955   3.9495   3.9495   3.9523
     3.9540   3.9553   3.9553   3.9609   3.9611   4.2607   4.2780   4.2780
     4.2788   4.2801   4.2809   4.2809   4.2924   4.4798   4.4821   4.4821
     4.4944   4.5351   4.5357   4.5365   4.5365   4.5385   4.5398   4.5501
     4.5501   5.8424   5.8454   5.8573   5.8573   7.2337   7.2337   7.2373
     7.2571   7.9766   8.0014   8.0017   8.0017   8.0098   8.0179   8.0256
     8.0256   8.2886   8.3061   8.3064   8.3064   8.3078   8.3129   8.3129
     8.3528   8.6815   8.6898   8.6906   8.6924   8.6924   8.7083   8.7085

          k = 0.0122 0.0122 0.0122 ( 36954 PWs)   bands (ev):

   -18.1816 -18.1816 -18.1816 -18.1516 -18.1516  -5.7034  -5.2152  -5.1323
    -5.1323  -4.6937  -4.6196  -4.6196  -4.2162  -4.1271  -4.0752  -4.0752
    -3.7614  -3.6473  -3.6473  -3.6436  -3.6432  -3.6432  -3.4732  -3.4385
    -3.4385  -2.9844  -2.9314  -2.9314  -2.6240  -2.5668  -2.5668  -2.4474
    -2.3856  -2.3856  -2.3838  -2.3831  -2.3831  -0.9407  -0.8230  -0.8230
    -0.8219  -0.8209  -0.8209  -0.7424  -0.7177  -0.7177  -0.6761  -0.6657
    -0.6657  -0.5622  -0.5412  -0.5412   0.1305   0.2128   0.2614   0.2614
     0.2616   0.2650   0.2650   1.1448   1.1756   1.1756   1.4600   1.4785
     1.4785   2.0131   2.0141   2.0141   2.0166   2.0196   2.0196   2.0833
     2.0892   2.0892   2.6547   2.6564   2.6564   2.7590   2.7702   2.7702
     2.7718   2.7744   2.7744   2.8687   2.8921   2.8921   3.1368   3.1368
     3.1386   3.1388   3.1409   3.1409   3.4293   3.4318   3.4318   3.4318
     3.4353   3.4353   3.7921   3.7945   3.7945   3.8292   3.8292   3.8298
     3.9099   3.9127   3.9127   4.1846   4.1851   4.1851   4.1892   4.1892
     4.1937   4.2362   4.2397   4.2397   4.5189   4.5625   4.5687   4.5687
     4.8047   4.8114   4.8114   4.8775   4.8775   4.8827   5.0483   5.0483
     5.3589   5.3674   5.3674   5.8515   5.8515   6.9137   6.9351   6.9351
     7.3925   7.4062   7.4062   7.7046   7.8776   7.9000   7.9000   8.0113
     8.0229   8.0229   8.2144   8.2238   8.2238   8.2385   8.2687   8.2687
     8.4391   8.4391   8.4392   8.4399   8.4653   8.4653   8.5760   8.7669

          k = 0.0122 0.0122-0.0244 ( 36904 PWs)   bands (ev):

   -18.1816 -18.1815 -18.1815 -18.1515 -18.1515  -5.5309  -5.4687  -5.0371
    -4.9404  -4.9386  -4.9364  -4.4935  -4.4461  -4.0104  -3.9109  -3.9090
    -3.9072  -3.6316  -3.5513  -3.5477  -3.5469  -3.3991  -3.3729  -3.1667
    -3.1165  -3.0650  -3.0297  -3.0261  -3.0255  -2.6668  -2.5991  -2.5989
    -2.5970  -2.5142  -2.4833  -2.4804  -2.4795  -0.8853  -0.7598  -0.7584
    -0.7571  -0.7559  -0.7526  -0.7518  -0.7504  -0.7270  -0.7229  -0.3411
    -0.2824  -0.2818  -0.2795  -0.2626  -0.2547  -0.2518  -0.2503   0.2199
     0.2429   0.7111   0.7542   0.7551   0.7560   0.7770   0.7786   1.9438
     1.9486   1.9488   1.9499   2.1488   2.1755   2.1791   2.1819   2.2434
     2.2475   2.2482   2.2487   2.3430   2.3435   2.3464   2.3474   2.8860
     2.8916   2.9419   2.9465   3.1497   3.1559   3.1568   3.1596   3.3627
     3.3630   3.3643   3.3656   3.3700   3.3777   3.3808   3.3814   3.5416
     3.5420   3.5449   3.5492   3.6122   3.6168   3.7033   3.7133   3.7734
     3.7767   3.7775   3.7788   4.0228   4.0240   4.0267   4.0290   4.3425
     4.3461   4.3462   4.3491   4.3521   4.3535   4.3551   4.3654   4.3660
     4.3710   4.5824   4.5887   5.2395   5.2468   5.3086   5.3107   5.3153
     5.3200   5.3479   5.3604   5.5869   5.5900   7.1011   7.1167   7.4140
     7.4328   7.4354   7.4361   7.8867   7.9122   7.9126   7.9170   7.9585
     7.9743   7.9836   7.9864   8.0768   8.0900   8.1301   8.1548   8.3615
     8.3732   8.4091   8.4293   8.4307   8.4345   8.5685   8.5814   8.6376

          k = 0.0122-0.0244-0.0244 ( 36900 PWs)   bands (ev):

   -18.1815 -18.1815 -18.1815 -18.1515 -18.1515  -5.3847  -5.2692  -5.2692
    -5.2675  -4.8376  -4.7514  -4.7514  -4.7500  -3.8782  -3.7644  -3.7644
    -3.7634  -3.4116  -3.2383  -3.2383  -3.2326  -3.2326  -3.2318  -3.2316
    -3.2316  -3.1022  -3.0361  -3.0361  -3.0327  -3.0320  -3.0317  -3.0314
    -3.0314  -2.5491  -2.4994  -2.4994  -2.4992  -0.8698  -0.7925  -0.7925
    -0.7924  -0.6411  -0.5751  -0.5751  -0.5748  -0.5737  -0.5718  -0.5718
    -0.5713  -0.0653   0.0218   0.0220   0.0227   0.0227   0.0239   0.0249
     0.0249   0.2237   0.2443   0.2443   0.2455   1.4322   1.4551   1.4564
     1.4564   1.9753   1.9759   1.9759   1.9809   2.5797   2.5992   2.6000
     2.6000   2.6009   2.6040   2.6051   2.6051   2.6114   2.6114   2.6140
     2.6147   2.6155   2.6169   2.6173   2.6173   2.9147   2.9336   2.9391
     2.9391   3.3655   3.3729   3.3729   3.3760   3.5977   3.6004   3.6004
     3.6009   3.6035   3.6050   3.6050   3.6077   3.7478   3.7501   3.7501
     3.7514   3.9782   3.9782   3.9805   3.9818   3.9836   3.9836   3.9856
     3.9897   4.1814   4.1840   4.1862   4.1862   4.9365   4.9386   4.9386
     4.9458   4.9504   4.9510   4.9603   4.9603   5.0760   5.0785   5.0785
     5.0856   5.7080   5.7103   5.7220   5.7220   7.3167   7.3167   7.3167
     7.3394   7.6140   7.6361   7.6361   7.6362   7.6393   7.6585   7.6585
     7.6626   7.9251   7.9268   7.9268   7.9480   8.1046   8.1195   8.1196
     8.1196   8.1196   8.1427   8.1427   8.1465   8.2360   8.2724   8.2726

          k =-0.0244-0.0244-0.0244 ( 37056 PWs)   bands (ev):

   -18.1816 -18.1816 -18.1816 -18.1516 -18.1516  -5.2686  -5.0755  -5.0755
    -5.0755  -5.0721  -5.0715  -5.0715  -5.0715  -3.5457  -3.1506  -3.1506
    -3.1506  -3.1402  -3.1402  -3.1400  -3.1400  -3.1400  -3.1396  -3.1396
    -3.1396  -3.1391  -3.1390  -3.1390  -3.1390  -3.1386  -3.1386  -3.1386
    -3.1384  -3.1384  -3.1370  -3.1370  -3.1370  -0.5371  -0.2849  -0.2849
    -0.2849  -0.2809  -0.2809  -0.2809  -0.2797  -0.2794  -0.2794  -0.2793
    -0.2793  -0.2793  -0.2779  -0.2779  -0.2779  -0.2772  -0.2772  -0.2771
    -0.2771  -0.2771  -0.2749  -0.2749  -0.2749   2.1230   2.1744   2.1744
     2.1744   2.1745   2.1810   2.1810   2.1810   2.5201   2.5470   2.5470
     2.5470   2.5523   2.5523   2.5523   2.5536   2.5536   2.5536   2.5544
     2.5544   2.5545   2.5545   2.5545   2.5546   2.5546   2.5546   2.5550
     2.5607   2.5607   2.5621   2.5621   2.5621   3.9059   3.9059   3.9059
     3.9141   3.9141   3.9141   3.9145   3.9145   3.9146   3.9146   3.9146
     3.9154   3.9156   3.9156   3.9156   3.9166   3.9168   3.9168   3.9168
     3.9182   3.9182   3.9275   3.9275   3.9275   5.3690   5.3690   5.3690
     5.3706   5.3706   5.3721   5.3721   5.3721   5.3725   5.3725   5.3725
     5.3727   5.3727   5.3999   5.3999   5.3999   7.4605   7.5555   7.5555
     7.5555   7.5565   7.5565   7.5565   7.5577   7.5577   7.5577   7.5577
     7.5578   7.5578   7.5601   7.5601   7.5601   7.5602   7.5602   7.5602
     7.6053   7.6053   7.6053   7.6195   7.6195   8.0137   8.0823   8.0824

     the Fermi energy is     6.4963 ev

!    total energy              =    -813.93254383 Ry
     Harris-Foulkes estimate   =    -813.93254383 Ry
     estimated scf accuracy    <          4.6E-11 Ry

     The total energy is the sum of the following terms:

     one-electron contribution =     -40.42834154 Ry
     hartree contribution      =     147.19607819 Ry
     xc contribution           =    -325.70864767 Ry
     ewald contribution        =    -594.99163280 Ry
     smearing contrib. (-TS)   =      -0.00000000 Ry

     convergence has been achieved in  14 iterations

     Forces acting on atoms (cartesian axes, Ry/au):

     atom    1 type  1   force =     0.00000000    0.00000000    0.00000000
     atom    2 type  2   force =     0.00000000    0.00000000    0.00000000
     atom    3 type  2   force =     0.00000000    0.00000000    0.00000000
     atom    4 type  2   force =     0.00000000   -0.00000000    0.00000000
     atom    5 type  2   force =     0.00000000    0.00000000    0.00000000
     atom    6 type  2   force =     0.00000000    0.00000000    0.00000000
     atom    7 type  2   force =     0.00000000    0.00000000    0.00000000
     atom    8 type  2   force =     0.00000000    0.00000000    0.00000000
     atom    9 type  2   force =     0.00012774    0.00050810    0.00050810
     atom   10 type  2   force =    -0.00012774    0.00050810   -0.00050810
     atom   11 type  2   force =    -0.00012774   -0.00050810    0.00050810
     atom   12 type  2   force =     0.00012774   -0.00050810   -0.00050810
     atom   13 type  2   force =    -0.00002675    0.00005113    0.00005113
     atom   14 type  2   force =     0.00002675    0.00005113   -0.00005113
     atom   15 type  2   force =     0.00002675   -0.00005113    0.00005113
     atom   16 type  2   force =    -0.00002675   -0.00005113   -0.00005113
     atom   17 type  2   force =     0.00050810    0.00012774    0.00050810
     atom   18 type  2   force =     0.00050810   -0.00012774   -0.00050810
     atom   19 type  2   force =     0.00005113   -0.00002675    0.00005113
     atom   20 type  2   force =     0.00005113    0.00002675   -0.00005113
     atom   21 type  2   force =    -0.00050810   -0.00012774    0.00050810
     atom   22 type  2   force =    -0.00050810    0.00012774   -0.00050810
     atom   23 type  2   force =    -0.00005113    0.00002675    0.00005113
     atom   24 type  2   force =    -0.00005113   -0.00002675   -0.00005113
     atom   25 type  2   force =     0.00050810    0.00050810    0.00012774
     atom   26 type  2   force =     0.00005113    0.00005113   -0.00002675
     atom   27 type  2   force =     0.00050810   -0.00050810   -0.00012774
     atom   28 type  2   force =     0.00005113   -0.00005113    0.00002675
     atom   29 type  2   force =    -0.00050810    0.00050810   -0.00012774
     atom   30 type  2   force =    -0.00005113    0.00005113    0.00002675
     atom   31 type  2   force =    -0.00050810   -0.00050810    0.00012774
     atom   32 type  2   force =    -0.00005113   -0.00005113   -0.00002675
     atom   33 type  2   force =     0.00012355    0.00012355   -0.00021192
     atom   34 type  2   force =    -0.00001974   -0.00001974    0.00001974
     atom   35 type  2   force =    -0.00007198    0.00010271   -0.00010271
     atom   36 type  2   force =     0.00012355    0.00021192   -0.00012355
     atom   37 type  2   force =     0.00010271   -0.00007198   -0.00010271
     atom   38 type  2   force =     0.00021192    0.00012355   -0.00012355
     atom   39 type  2   force =    -0.00628932   -0.00628932    0.00628932
     atom   40 type  2   force =     0.00010271    0.00010271    0.00007198
     atom   41 type  2   force =     0.00012355   -0.00021192    0.00012355
     atom   42 type  2   force =    -0.00007198   -0.00010271    0.00010271
     atom   43 type  2   force =    -0.00001974    0.00001974   -0.00001974
     atom   44 type  2   force =     0.00012355   -0.00012355    0.00021192
     atom   45 type  2   force =     0.00010271   -0.00010271   -0.00007198
     atom   46 type  2   force =    -0.00628932    0.00628932   -0.00628932
     atom   47 type  2   force =     0.00021192   -0.00012355    0.00012355
     atom   48 type  2   force =     0.00010271    0.00007198    0.00010271
     atom   49 type  2   force =    -0.00021192    0.00012355    0.00012355
     atom   50 type  2   force =    -0.00010271   -0.00007198    0.00010271
     atom   51 type  2   force =    -0.00010271    0.00010271   -0.00007198
     atom   52 type  2   force =     0.00628932   -0.00628932   -0.00628932
     atom   53 type  2   force =     0.00001974   -0.00001974   -0.00001974
     atom   54 type  2   force =    -0.00012355    0.00012355    0.00021192
     atom   55 type  2   force =    -0.00012355    0.00021192    0.00012355
     atom   56 type  2   force =     0.00007198    0.00010271    0.00010271
     atom   57 type  2   force =     0.00628932    0.00628932    0.00628932
     atom   58 type  2   force =    -0.00010271   -0.00010271    0.00007198
     atom   59 type  2   force =    -0.00010271    0.00007198   -0.00010271
     atom   60 type  2   force =    -0.00021192   -0.00012355   -0.00012355
     atom   61 type  2   force =     0.00007198   -0.00010271   -0.00010271
     atom   62 type  2   force =    -0.00012355   -0.00021192   -0.00012355
     atom   63 type  2   force =    -0.00012355   -0.00012355   -0.00021192
     atom   64 type  2   force =     0.00001974    0.00001974    0.00001974

     Total force =     0.021963     Total SCF correction =     0.000012


     Computing stress (Cartesian axis) and pressure

          total   stress  (Ry/bohr**3)                   (kbar)     P=   -7.61
  -0.00005172   0.00000000   0.00000000         -7.61      0.00      0.00
   0.00000000  -0.00005172   0.00000000          0.00     -7.61      0.00
   0.00000000   0.00000000  -0.00005172          0.00      0.00     -7.61


     number of scf cycles    =   2
     number of bfgs steps    =   1

     enthalpy old            =    -813.9270567459 Ry
     enthalpy new            =    -813.9325438261 Ry

     CASE: enthalpy_new < enthalpy_old

     new trust radius        =       0.0546879765 bohr
     new conv_thr            =            6.3E-12 Ry

     new unit-cell volume =   8508.21122 a.u.^3 (  1260.78681 Ang^3 )
     density =      2.42603 g/cm^3

CELL_PARAMETERS (alat=  1.00000000)
  20.414845034   0.000000000   0.000000000
   0.000000000  20.414845034   0.000000000
   0.000000000   0.000000000  20.414845034

ATOMIC_POSITIONS (crystal)
Ge       0.000000000   0.000000000   0.000000000
Si       0.000000000   0.000000000   0.500000000
Si       0.000000000   0.500000000   0.000000000
Si       0.000000000   0.500000000   0.500000000
Si       0.500000000   0.000000000   0.000000000
Si       0.500000000  -0.000000000   0.500000000
Si       0.500000000   0.500000000   0.000000000
Si       0.500000000   0.500000000   0.500000000
Si       0.000033259   0.250050626   0.250050626
Si      -0.000033259   0.250050626   0.749949374
Si      -0.000033259   0.749949374   0.250050626
Si       0.000033259   0.749949374   0.749949374
Si       0.499995592   0.250007066   0.250007066
Si       0.500004408   0.250007066   0.749992934
Si       0.500004408   0.749992934   0.250007066
Si       0.499995592   0.749992934   0.749992934
Si       0.250050626   0.000033259   0.250050626
Si       0.250050626  -0.000033259   0.749949374
Si       0.250007066   0.499995592   0.250007066
Si       0.250007066   0.500004408   0.749992934
Si       0.749949374  -0.000033259   0.250050626
Si       0.749949374   0.000033259   0.749949374
Si       0.749992934   0.500004408   0.250007066
Si       0.749992934   0.499995592   0.749992934
Si       0.250050626   0.250050626   0.000033259
Si       0.250007066   0.250007066   0.499995592
Si       0.250050626   0.749949374  -0.000033259
Si       0.250007066   0.749992934   0.500004408
Si       0.749949374   0.250050626  -0.000033259
Si       0.749992934   0.250007066   0.500004408
Si       0.749949374   0.749949374   0.000033259
Si       0.749992934   0.749992934   0.499995592
Si       0.375014599   0.375014599   0.124976494
Si       0.374996831   0.374996831   0.625003169
Si       0.374992100   0.875011930   0.124988070
Si       0.375014599   0.875023506   0.624985401
Si       0.875011930   0.374992100   0.124988070
Si       0.875023506   0.375014599   0.624985401
Si       0.873872323   0.873872323   0.126127677
Si       0.875011930   0.875011930   0.625007900
Si       0.375014599   0.124976494   0.375014599
Si       0.374992100   0.124988070   0.875011930
Si       0.374996831   0.625003169   0.374996831
Si       0.375014599   0.624985401   0.875023506
Si       0.875011930   0.124988070   0.374992100
Si       0.873872323   0.126127677   0.873872323
Si       0.875023506   0.624985401   0.375014599
Si       0.875011930   0.625007900   0.875011930
Si       0.124976494   0.375014599   0.375014599
Si       0.124988070   0.374992100   0.875011930
Si       0.124988070   0.875011930   0.374992100
Si       0.126127677   0.873872323   0.873872323
Si       0.625003169   0.374996831   0.374996831
Si       0.624985401   0.375014599   0.875023506
Si       0.624985401   0.875023506   0.375014599
Si       0.625007900   0.875011930   0.875011930
Si       0.126127677   0.126127677   0.126127677
Si       0.124988070   0.124988070   0.625007900
Si       0.124988070   0.625007900   0.124988070
Si       0.124976494   0.624985401   0.624985401
Si       0.625007900   0.124988070   0.124988070
Si       0.624985401   0.124976494   0.624985401
Si       0.624985401   0.624985401   0.124976494
Si       0.625003169   0.625003169   0.625003169



     Writing output data file scf_b.save
     NEW-OLD atomic charge density approx. for the potential
     extrapolated charge  263.63122, renormalised to  266.00000

     total cpu time spent up to now is      135.4 secs

     per-process dynamical memory:   101.6 Mb

     Self-consistent Calculation

     iteration #  1     ecut=    40.00 Ry     beta=0.70
     Davidson diagonalization with overlap
     ethr =  1.00E-06,  avg # of iterations = 12.5

     total cpu time spent up to now is      142.0 secs

     total energy              =    -813.87196998 Ry
     Harris-Foulkes estimate   =    -814.34184008 Ry
     estimated scf accuracy    <       0.05160920 Ry

     iteration #  2     ecut=    40.00 Ry     beta=0.70
     Davidson diagonalization with overlap
     ethr =  1.94E-05,  avg # of iterations =  6.5

     total cpu time spent up to now is      147.5 secs

     total energy              =    -813.87022162 Ry
     Harris-Foulkes estimate   =    -814.06042406 Ry
     estimated scf accuracy    <       0.74889565 Ry

     iteration #  3     ecut=    40.00 Ry     beta=0.70
     Davidson diagonalization with overlap
     ethr =  1.94E-05,  avg # of iterations =  5.5

     total cpu time spent up to now is      152.6 secs

     total energy              =    -813.93675347 Ry
     Harris-Foulkes estimate   =    -813.94480671 Ry
     estimated scf accuracy    <       0.03443818 Ry

     iteration #  4     ecut=    40.00 Ry     beta=0.70
     Davidson diagonalization with overlap
     ethr =  1.29E-05,  avg # of iterations =  2.0

     total cpu time spent up to now is      154.6 secs

     total energy              =    -813.93711407 Ry
     Harris-Foulkes estimate   =    -813.93912472 Ry
     estimated scf accuracy    <       0.01828568 Ry

     iteration #  5     ecut=    40.00 Ry     beta=0.70
     Davidson diagonalization with overlap
     ethr =  6.87E-06,  avg # of iterations =  1.0

     total cpu time spent up to now is      156.4 secs

     total energy              =    -813.93562652 Ry
     Harris-Foulkes estimate   =    -813.93742101 Ry
     estimated scf accuracy    <       0.01150624 Ry

     iteration #  6     ecut=    40.00 Ry     beta=0.70
     Davidson diagonalization with overlap
     ethr =  4.33E-06,  avg # of iterations =  1.9

     total cpu time spent up to now is      158.3 secs

     total energy              =    -813.93514702 Ry
     Harris-Foulkes estimate   =    -813.93593631 Ry
     estimated scf accuracy    <       0.00442090 Ry

     iteration #  7     ecut=    40.00 Ry     beta=0.70
     Davidson diagonalization with overlap
     ethr =  1.66E-06,  avg # of iterations =  4.8

     total cpu time spent up to now is      161.5 secs

     total energy              =    -813.93485847 Ry
     Harris-Foulkes estimate   =    -813.93533296 Ry
     estimated scf accuracy    <       0.00126609 Ry

     iteration #  8     ecut=    40.00 Ry     beta=0.70
     Davidson diagonalization with overlap
     ethr =  4.76E-07,  avg # of iterations =  3.0

     total cpu time spent up to now is      164.7 secs

     total energy              =    -813.93507335 Ry
     Harris-Foulkes estimate   =    -813.93507596 Ry
     estimated scf accuracy    <       0.00000994 Ry

     iteration #  9     ecut=    40.00 Ry     beta=0.70
     Davidson diagonalization with overlap
     ethr =  3.74E-09,  avg # of iterations =  3.4

     total cpu time spent up to now is      167.8 secs

     total energy              =    -813.93507471 Ry
     Harris-Foulkes estimate   =    -813.93507693 Ry
     estimated scf accuracy    <       0.00000705 Ry

     iteration # 10     ecut=    40.00 Ry     beta=0.70
     Davidson diagonalization with overlap
     ethr =  2.65E-09,  avg # of iterations =  2.0

     total cpu time spent up to now is      169.9 secs

     total energy              =    -813.93507581 Ry
     Harris-Foulkes estimate   =    -813.93507592 Ry
     estimated scf accuracy    <       0.00000026 Ry

     iteration # 11     ecut=    40.00 Ry     beta=0.70
     Davidson diagonalization with overlap
     ethr =  9.77E-11,  avg # of iterations =  3.0

     total cpu time spent up to now is      172.5 secs

     total energy              =    -813.93507587 Ry
     Harris-Foulkes estimate   =    -813.93507588 Ry
     estimated scf accuracy    <       0.00000002 Ry

     iteration # 12     ecut=    40.00 Ry     beta=0.70
     Davidson diagonalization with overlap
     ethr =  6.94E-12,  avg # of iterations =  3.0

     total cpu time spent up to now is      175.2 secs

     total energy              =    -813.93507588 Ry
     Harris-Foulkes estimate   =    -813.93507588 Ry
     estimated scf accuracy    <          8.8E-10 Ry

     iteration # 13     ecut=    40.00 Ry     beta=0.70
     Davidson diagonalization with overlap
     ethr =  3.32E-13,  avg # of iterations =  3.0

     total cpu time spent up to now is      178.0 secs

     total energy              =    -813.93507588 Ry
     Harris-Foulkes estimate   =    -813.93507588 Ry
     estimated scf accuracy    <          8.8E-10 Ry

     iteration # 14     ecut=    40.00 Ry     beta=0.70
     Davidson diagonalization with overlap
     ethr =  3.30E-13,  avg # of iterations =  2.0

     total cpu time spent up to now is      180.2 secs

     total energy              =    -813.93507588 Ry
     Harris-Foulkes estimate   =    -813.93507588 Ry
     estimated scf accuracy    <          1.9E-11 Ry

     iteration # 15     ecut=    40.00 Ry     beta=0.70
     Davidson diagonalization with overlap
     ethr =  1.00E-13,  avg # of iterations =  1.0

     total cpu time spent up to now is      182.1 secs

     End of self-consistent calculation

          k = 0.0000 0.0000 0.0000 ( 37073 PWs)   bands (ev):

   -18.0692 -18.0692 -18.0692 -18.0399 -18.0399  -5.8713  -4.8817  -4.7542
    -4.7542  -4.7542  -4.7491  -4.7491  -3.9823  -3.7794  -3.7794  -3.7794
    -3.7718  -3.7718  -3.7718  -3.7712  -3.7712  -3.7712  -3.7690  -3.7690
    -3.5077  -3.4708  -3.4708  -3.4708  -1.8089  -1.6479  -1.6479  -1.6463
    -1.6463  -1.6463  -1.5581  -1.4752  -1.4752  -1.4752  -1.4718  -1.4718
    -1.4711  -1.4711  -1.4711  -1.4704  -1.4704  -1.4704  -0.8700  -0.8410
    -0.8410  -0.8410   0.5841   0.7030   0.7030   0.7030   0.7032   0.7032
     0.7032   0.7079   0.7079   0.7189   0.7189   0.7189   2.2764   2.2764
     2.2764   2.2799   2.2799   2.2799   2.2824   2.2852   2.2852   2.2852
     2.2898   2.2898   2.3737   2.3844   2.3844   2.3876   2.3876   2.3876
     2.3892   2.3892   2.3892   2.3910   2.3910   2.3910   2.6411   2.6971
     2.6971   2.7053   2.7053   2.7053   3.3301   3.3301   3.3301   3.3346
     3.3346   3.3346   4.3020   4.3020   4.3020   4.3031   4.3031   4.3031
     4.3064   4.3064   4.3064   4.3236   4.3236   4.3236   4.8731   4.8731
     4.8731   4.8836   4.8843   4.8843   4.8843   4.8890   4.8890   4.9024
     4.9024   4.9024   5.0110   5.0110   5.0159   5.0159   5.0159   5.0377
     5.0377   5.0377   6.2380   6.2380   6.2380   6.7714   6.8208   6.8208
     6.8208   6.8281   6.8281   7.2404   7.2637   7.2637   7.2767   7.2767
     7.2767   7.6582   7.7200   7.7200   7.7200   8.5581   8.6016   8.6016
     8.6016   8.6049   8.6049   8.6049   8.6331   8.6331   8.6331   8.6393

          k = 0.0000 0.0000 0.0122 ( 36941 PWs)   bands (ev):

   -18.0692 -18.0691 -18.0691 -18.0398 -18.0398  -5.8025  -5.2527  -4.7789
    -4.6908  -4.6908  -4.6857  -4.2794  -4.1935  -4.1935  -4.1890  -4.1550
    -3.8089  -3.7378  -3.7362  -3.7362  -3.5732  -3.5244  -3.5240  -3.5240
    -3.3039  -3.2613  -3.2613  -3.2580  -2.5988  -2.1371  -2.0703  -2.0703
    -2.0681  -1.6930  -1.6246  -1.6227  -1.6227  -1.5333  -1.5026  -1.4990
    -1.4990  -0.9648  -0.9147  -0.9147  -0.9136  -0.7050  -0.6743  -0.6731
    -0.6731  -0.6350   0.1033   0.1453   0.1460   0.1460   0.3213   0.3477
     0.3522   0.3522   1.2686   1.3012   1.3049   1.3049   1.5605   1.9650
     1.9650   1.9652   1.9697   2.0505   2.0509   2.0525   2.0525   2.4024
     2.4058   2.4058   2.4114   2.4147   2.4464   2.4535   2.4535   2.8404
     2.8416   2.8416   2.8434   2.8451   2.8504   2.8504   2.8532   2.8677
     2.8687   2.8752   2.8752   3.1335   3.1338   3.1338   3.1345   3.3949
     3.3949   3.8141   3.8884   3.8884   4.0220   4.0243   4.0322   4.0322
[...]
     4.9689   5.3969   5.3969   5.4124   5.4124   6.7131   6.7315   7.6403
     7.6451   8.0666   8.0980   8.0983   8.0983   8.0989   8.1173   8.1173
     8.1248   8.1707   8.1865   8.4750   8.5216   8.5217   8.5234   8.5277
     8.5277   8.5312   8.5835   8.6016   8.6069   8.6075   8.6113   8.6124

          k = 0.0000 0.0122 0.0122 ( 36395 PWs)   bands (ev):

   -18.0590 -18.0590 -18.0590 -18.0308 -18.0308  -5.7347  -5.2053  -5.1680
    -4.6930  -4.6396  -4.6325  -4.2317  -4.1477  -4.1463  -4.1445  -4.1073
    -4.0945  -3.8079  -3.7761  -3.6651  -3.6382  -3.3817  -3.3385  -3.2897
    -3.2599  -3.2576  -3.2572  -2.8424  -2.5776  -2.5480  -2.3250  -2.2841
    -2.2703  -2.2641  -1.9416  -1.9146  -1.7304  -1.5161  -1.1534  -1.1281
    -0.8494  -0.7940  -0.7857  -0.7724  -0.7651  -0.7600  -0.6574  -0.6400
    -0.3408  -0.3110  -0.3037  -0.1570  -0.1338  -0.1313  -0.1249   0.6013
     0.6271   0.8740   0.9014   0.9095   0.9126   1.4120   1.4287   1.7771
     1.9323   1.9374   1.9825   2.0017   2.0031   2.1158   2.1358   2.2293
     2.2372   2.4376   2.4397   2.4413   2.4493   2.4888   2.4934   2.6173
     2.7999   2.8037   3.0604   3.0704   3.0858   3.0895   3.1532   3.1541
     3.2417   3.2458   3.3166   3.3194   3.3216   3.3283   3.3713   3.3880
     3.4083   3.4408   3.6035   3.6135   3.9159   3.9167   4.0505   4.0580
     4.1711   4.1747   4.1971   4.2145   4.2644   4.3764   4.3914   4.3946
     4.3979   4.4008   4.4056   4.5372   4.5423   4.7441   4.7506   4.7615
     4.7745   4.8752   4.8936   4.9625   4.9729   4.9778   4.9808   5.1284
     5.1407   5.1709   5.4860   5.6877   6.1672   6.9357   7.0626   7.0784
     7.3270   7.3357   7.4609   7.4835   7.8582   7.8741   7.9081   7.9813
     8.0744   8.0901   8.0907   8.1181   8.4449   8.4483   8.4795   8.4823
     8.6098   8.6123   8.6219   8.6237   8.6435   8.6648   8.9059   9.0027

          k = 0.0000 0.0122-0.0245 ( 36408 PWs)   bands (ev):

   -18.0590 -18.0590 -18.0590 -18.0308 -18.0307  -5.5484  -5.5082  -5.0085
    -4.9690  -4.5195  -4.4500  -4.4459  -4.4458  -4.0716  -4.0004  -3.9968
    -3.9964  -3.9370  -3.9188  -3.4212  -3.3750  -3.3067  -3.2616  -3.2590
    -3.2577  -3.0115  -2.9849  -2.7917  -2.7424  -2.7402  -2.7401  -2.4603
    -2.4318  -2.3813  -2.3626  -1.8284  -1.8004  -1.3590  -1.3313  -0.7908
    -0.7392  -0.6945  -0.6722  -0.5944  -0.5538  -0.5519  -0.5516  -0.5281
    -0.5100  -0.5073  -0.5072  -0.0746  -0.0489   0.2284   0.2577   0.2608
     0.2647   0.3722   0.3945   1.0663   1.0826   1.4971   1.5261   1.5319
     1.5373   1.7277   1.7278   2.1545   2.1573   2.1575   2.1589   2.1711
     2.1730   2.2700   2.2735   2.6755   2.6766   2.6957   2.7084   2.9691
     2.9726   3.0484   3.0504   3.2381   3.2410   3.2414   3.2535   3.3128
     3.3189   3.3498   3.3523   3.4224   3.4285   3.5032   3.5090   3.6837
     3.6912   3.6928   3.6938   3.7746   3.7777   3.8192   3.8276   3.8282
     3.8286   3.9593   3.9669   4.0270   4.0293   4.1213   4.1251   4.1310
     4.1436   4.3073   4.3207   4.5240   4.5271   4.5374   4.5397   4.7056
     4.7133   4.7169   4.7260   4.9321   4.9370   4.9421   4.9541   5.1204
     5.1342   5.4982   5.5021   5.7977   5.8030   7.1167   7.1357   7.4264
     7.4362   7.8994   7.9184   7.9568   7.9572   8.0174   8.0303   8.2915
     8.2934   8.3460   8.3534   8.4505   8.4540   8.4688   8.4795   8.5398
     8.5501   8.5530   8.5716   8.5889   8.6013   8.7078   8.7079   8.7132

          k = 0.0000-0.0245-0.0245 ( 36332 PWs)   bands (ev):

   -18.0590 -18.0590 -18.0590 -18.0307 -18.0307  -5.3806  -5.3064  -5.3064
    -5.3036  -4.4060  -4.2787  -4.2755  -4.2755  -4.2725  -4.2724  -4.2724
    -4.2701  -3.3650  -3.2263  -3.2254  -3.2254  -3.2233  -3.2220  -3.2220
    -3.2209  -3.0103  -2.9366  -2.9340  -2.9340  -2.9306  -2.9306  -2.9298
    -2.9288  -2.1143  -2.0606  -2.0606  -2.0593  -1.1150  -1.0603  -1.0603
    -1.0549  -0.7158  -0.6459  -0.6426  -0.6426  -0.6404  -0.6356  -0.6343
    -0.6343   0.1313   0.2198   0.2224   0.2224   0.2225   0.2226   0.2316
     0.2316   0.8186   0.8721   0.8729   0.8729   0.8800   0.8843   0.8843
     0.8876   1.8144   1.8144   1.8184   1.8211   2.6865   2.7005   2.7027
     2.7027   2.7034   2.7056   2.7139   2.7139   2.7818   2.7823   2.7823
     2.7825   2.7873   2.7940   2.7940   2.7967   3.3901   3.4032   3.4032
     3.4090   3.4090   3.4104   3.4105   3.4109   3.4876   3.5124   3.5241
     3.5241   3.7529   3.7581   3.7675   3.7675   4.0129   4.0179   4.0179
     4.0197   4.0221   4.0221   4.0318   4.0358   4.3383   4.3502   4.3502
     4.3524   4.3560   4.3560   4.3600   4.3828   4.5472   4.5536   4.5536
     4.5707   4.5994   4.6069   4.6078   4.6083   4.6093   4.6093   4.6385
     4.6385   5.9190   5.9305   5.9466   5.9466   7.3031   7.3031   7.3153
     7.3360   8.0522   8.0838   8.0838   8.0862   8.0956   8.1043   8.1072
     8.1072   8.3840   8.3951   8.3951   8.3995   8.4006   8.4036   8.4036
     8.4533   8.7580   8.7688   8.7710   8.7747   8.7747   8.7881   8.7881

          k = 0.0122 0.0122 0.0122 ( 36381 PWs)   bands (ev):

   -18.0590 -18.0590 -18.0590 -18.0307 -18.0307  -5.6665  -5.1574  -5.1024
    -5.1024  -4.6372  -4.5856  -4.5856  -4.1620  -4.0771  -4.0376  -4.0376
    -3.6967  -3.6037  -3.6037  -3.6027  -3.5994  -3.5994  -3.4230  -3.3910
    -3.3910  -2.9233  -2.8823  -2.8823  -2.5639  -2.5151  -2.5151  -2.3859
    -2.3316  -2.3316  -2.3315  -2.3285  -2.3285  -0.8685  -0.7608  -0.7608
    -0.7606  -0.7555  -0.7555  -0.6798  -0.6525  -0.6525  -0.6279  -0.6117
    -0.6117  -0.4930  -0.4849  -0.4849   0.1855   0.2812   0.3231   0.3236
     0.3236   0.3354   0.3354   1.2251   1.2500   1.2500   1.5280   1.5488
     1.5488   2.0597   2.0659   2.0659   2.0669   2.0725   2.0725   2.1389
     2.1442   2.1442   2.7121   2.7125   2.7125   2.8200   2.8284   2.8299
     2.8299   2.8415   2.8415   2.9454   2.9727   2.9727   3.1911   3.1911
     3.1915   3.2064   3.2074   3.2074   3.4915   3.4915   3.4959   3.4977
     3.5054   3.5054   3.8595   3.8595   3.8682   3.9005   3.9005   3.9107
     3.9743   3.9836   3.9836   4.2488   4.2514   4.2514   4.2598   4.2598
     4.2772   4.3039   4.3149   4.3149   4.6027   4.6358   4.6445   4.6445
     4.8754   4.8882   4.8882   4.9557   4.9557   4.9679   5.1281   5.1281
     5.4358   5.4518   5.4518   5.9354   5.9354   6.9807   7.0089   7.0089
     7.4695   7.4849   7.4849   7.8182   7.9573   7.9811   7.9811   8.0868
     8.1043   8.1043   8.3078   8.3084   8.3084   8.3312   8.3694   8.3694
     8.5174   8.5174   8.5179   8.5239   8.5558   8.5558   8.6849   8.8778

          k = 0.0122 0.0122-0.0245 ( 36390 PWs)   bands (ev):

   -18.0590 -18.0590 -18.0590 -18.0307 -18.0307  -5.4821  -5.4406  -4.9768
    -4.9088  -4.9052  -4.9051  -4.4455  -4.4098  -3.9430  -3.8716  -3.8681
    -3.8678  -3.5734  -3.5039  -3.5035  -3.5022  -3.3522  -3.3264  -3.1098
    -3.0655  -3.0126  -2.9796  -2.9777  -2.9770  -2.6050  -2.5473  -2.5449
    -2.5421  -2.4598  -2.4294  -2.4283  -2.4277  -0.8175  -0.6975  -0.6947
    -0.6940  -0.6939  -0.6916  -0.6901  -0.6868  -0.6751  -0.6664  -0.2755
    -0.2214  -0.2156  -0.2136  -0.2070  -0.1962  -0.1958  -0.1897   0.2914
     0.3166   0.7810   0.8210   0.8253   0.8256   0.8398   0.8470   1.9957
     1.9977   2.0018   2.0046   2.2198   2.2473   2.2516   2.2574   2.2977
     2.2987   2.3011   2.3023   2.3991   2.4015   2.4029   2.4054   2.9510
     2.9567   2.9995   3.0079   3.2154   3.2183   3.2193   3.2258   3.4250
     3.4254   3.4275   3.4302   3.4410   3.4479   3.4509   3.4517   3.6003
     3.6047   3.6066   3.6213   3.6763   3.6867   3.7841   3.7928   3.8359
     3.8439   3.8489   3.8489   4.0891   4.0944   4.0957   4.1009   4.4100
     4.4143   4.4164   4.4220   4.4231   4.4251   4.4297   4.4344   4.4499
     4.4533   4.6597   4.6659   5.3165   5.3278   5.3847   5.3919   5.3991
     5.4035   5.4255   5.4469   5.6721   5.6737   7.1729   7.1929   7.4861
     7.5082   7.5112   7.5152   7.9636   7.9908   7.9922   7.9966   8.0388
     8.0568   8.0676   8.0710   8.1589   8.1806   8.2421   8.2692   8.4380
     8.4561   8.4959   8.5200   8.5223   8.5304   8.6667   8.6822   8.7211

          k = 0.0122-0.0245-0.0245 ( 36276 PWs)   bands (ev):

   -18.0590 -18.0590 -18.0590 -18.0307 -18.0307  -5.3177  -5.2403  -5.2403
    -5.2374  -4.7823  -4.7184  -4.7184  -4.7158  -3.8053  -3.7233  -3.7233
    -3.7210  -3.3340  -3.1905  -3.1894  -3.1894  -3.1870  -3.1860  -3.1860
    -3.1850  -3.0471  -2.9874  -2.9851  -2.9851  -2.9818  -2.9818  -2.9809
    -2.9807  -2.4907  -2.4464  -2.4464  -2.4447  -0.8020  -0.7316  -0.7316
    -0.7278  -0.5872  -0.5217  -0.5183  -0.5183  -0.5163  -0.5130  -0.5099
    -0.5099   0.0065   0.0870   0.0903   0.0903   0.0908   0.0909   0.0991
     0.0991   0.2858   0.3078   0.3082   0.3082   1.4987   1.5197   1.5245
     1.5245   2.0256   2.0256   2.0271   2.0334   2.6419   2.6553   2.6593
     2.6593   2.6612   2.6621   2.6621   2.6632   2.6677   2.6700   2.6740
     2.6740   2.6771   2.6773   2.6813   2.6813   2.9904   3.0078   3.0170
     3.0170   3.4367   3.4391   3.4391   3.4478   3.6565   3.6638   3.6643
     3.6643   3.6668   3.6722   3.6722   3.6840   3.8095   3.8144   3.8238
     3.8238   4.0427   4.0463   4.0463   4.0477   4.0534   4.0534   4.0561
     4.0689   4.2459   4.2506   4.2638   4.2638   5.0097   5.0126   5.0126
     5.0203   5.0247   5.0252   5.0460   5.0460   5.1562   5.1576   5.1576
     5.1761   5.7835   5.7933   5.8105   5.8105   7.3868   7.3868   7.3933
     7.4187   7.6892   7.7098   7.7107   7.7107   7.7164   7.7389   7.7389
     7.7510   8.0049   8.0049   8.0075   8.0344   8.1974   8.1984   8.1984
     8.1990   8.1998   8.2287   8.2287   8.2390   8.3462   8.3855   8.3861

          k =-0.0245-0.0245-0.0245 ( 36120 PWs)   bands (ev):

   -18.0590 -18.0590 -18.0590 -18.0307 -18.0307  -5.1804  -5.0448  -5.0448
    -5.0448  -5.0411  -5.0411  -5.0411  -5.0386  -3.4255  -3.0999  -3.0999
    -3.0999  -3.0971  -3.0971  -3.0971  -3.0954  -3.0954  -3.0914  -3.0914
    -3.0914  -3.0910  -3.0910  -3.0910  -3.0907  -3.0906  -3.0906  -3.0906
    -3.0900  -3.0900  -3.0872  -3.0872  -3.0872  -0.4673  -0.2234  -0.2234
    -0.2223  -0.2223  -0.2223  -0.2222  -0.2222  -0.2222  -0.2205  -0.2204
    -0.2204  -0.2204  -0.2171  -0.2171  -0.2171  -0.2151  -0.2151  -0.2131
    -0.2131  -0.2131  -0.1949  -0.1949  -0.1949   2.1905   2.2405   2.2443
     2.2443   2.2443   2.2543   2.2543   2.2543   2.5803   2.6026   2.6026
     2.6026   2.6074   2.6074   2.6074   2.6081   2.6081   2.6081   2.6088
     2.6088   2.6092   2.6104   2.6104   2.6104   2.6194   2.6194   2.6194
     2.6265   2.6265   2.6328   2.6328   2.6328   3.9682   3.9682   3.9682
     3.9733   3.9733   3.9751   3.9803   3.9803   3.9803   3.9823   3.9823
     3.9823   3.9823   3.9823   3.9823   3.9834   3.9866   3.9866   3.9877
     3.9877   3.9877   4.0213   4.0213   4.0213   5.4417   5.4417   5.4417
     5.4456   5.4456   5.4482   5.4482   5.4523   5.4523   5.4523   5.4529
     5.4529   5.4529   5.4972   5.4972   5.4972   7.5242   7.6245   7.6245
     7.6245   7.6286   7.6286   7.6286   7.6307   7.6307   7.6307   7.6312
     7.6312   7.6350   7.6350   7.6350   7.6362   7.6374   7.6374   7.6374
     7.6928   7.6928   7.6928   7.7249   7.7249   8.1321   8.1911   8.1911

     the Fermi energy is     6.5908 ev

!    total energy              =    -813.93522903 Ry
     Harris-Foulkes estimate   =    -813.93522903 Ry
     estimated scf accuracy    <          7.5E-13 Ry

     The total energy is the sum of the following terms:

     one-electron contribution =     -36.66676210 Ry
     hartree contribution      =     146.14440221 Ry
     xc contribution           =    -326.03169746 Ry
     ewald contribution        =    -597.38117167 Ry
     smearing contrib. (-TS)   =      -0.00000000 Ry

     convergence has been achieved in  15 iterations

     Forces acting on atoms (cartesian axes, Ry/au):

     atom    1 type  1   force =     0.00000000    0.00000000    0.00000000
     atom    2 type  2   force =     0.00000000    0.00000000    0.00000000
     atom    3 type  2   force =     0.00000000    0.00000000    0.00000000
     atom    4 type  2   force =     0.00000000    0.00000000    0.00000000
     atom    5 type  2   force =     0.00000000   -0.00000000    0.00000000
     atom    6 type  2   force =     0.00000000   -0.00000000    0.00000000
     atom    7 type  2   force =     0.00000000    0.00000000    0.00000000
     atom    8 type  2   force =     0.00000000    0.00000000    0.00000000
     atom    9 type  2   force =    -0.00003264    0.00045454    0.00045454
     atom   10 type  2   force =     0.00003264    0.00045454   -0.00045454
     atom   11 type  2   force =     0.00003264   -0.00045454    0.00045454
     atom   12 type  2   force =    -0.00003264   -0.00045454   -0.00045454
     atom   13 type  2   force =     0.00000466   -0.00004111   -0.00004111
     atom   14 type  2   force =    -0.00000466   -0.00004111    0.00004111
     atom   15 type  2   force =    -0.00000466    0.00004111   -0.00004111
     atom   16 type  2   force =     0.00000466    0.00004111    0.00004111
     atom   17 type  2   force =     0.00045454   -0.00003264    0.00045454
     atom   18 type  2   force =     0.00045454    0.00003264   -0.00045454
     atom   19 type  2   force =    -0.00004111    0.00000466   -0.00004111
     atom   20 type  2   force =    -0.00004111   -0.00000466    0.00004111
     atom   21 type  2   force =    -0.00045454    0.00003264    0.00045454
     atom   22 type  2   force =    -0.00045454   -0.00003264   -0.00045454
     atom   23 type  2   force =     0.00004111   -0.00000466   -0.00004111
     atom   24 type  2   force =     0.00004111    0.00000466    0.00004111
     atom   25 type  2   force =     0.00045454    0.00045454   -0.00003264
     atom   26 type  2   force =    -0.00004111   -0.00004111    0.00000466
     atom   27 type  2   force =     0.00045454   -0.00045454    0.00003264
     atom   28 type  2   force =    -0.00004111    0.00004111   -0.00000466
     atom   29 type  2   force =    -0.00045454    0.00045454    0.00003264
     atom   30 type  2   force =     0.00004111   -0.00004111   -0.00000466
     atom   31 type  2   force =    -0.00045454   -0.00045454   -0.00003264
     atom   32 type  2   force =     0.00004111    0.00004111    0.00000466
     atom   33 type  2   force =     0.00033399    0.00033399    0.00013843
     atom   34 type  2   force =    -0.00003491   -0.00003491    0.00003491
     atom   35 type  2   force =     0.00012182   -0.00003046    0.00003046
     atom   36 type  2   force =     0.00033399   -0.00013843   -0.00033399
     atom   37 type  2   force =    -0.00003046    0.00012182    0.00003046
     atom   38 type  2   force =    -0.00013843    0.00033399   -0.00033399
     atom   39 type  2   force =    -0.00026115   -0.00026115    0.00026115
     atom   40 type  2   force =    -0.00003046   -0.00003046   -0.00012182
     atom   41 type  2   force =     0.00033399    0.00013843    0.00033399
     atom   42 type  2   force =     0.00012182    0.00003046   -0.00003046
     atom   43 type  2   force =    -0.00003491    0.00003491   -0.00003491
     atom   44 type  2   force =     0.00033399   -0.00033399   -0.00013843
     atom   45 type  2   force =    -0.00003046    0.00003046    0.00012182
     atom   46 type  2   force =    -0.00026115    0.00026115   -0.00026115
     atom   47 type  2   force =    -0.00013843   -0.00033399    0.00033399
     atom   48 type  2   force =    -0.00003046   -0.00012182   -0.00003046
     atom   49 type  2   force =     0.00013843    0.00033399    0.00033399
     atom   50 type  2   force =     0.00003046    0.00012182   -0.00003046
     atom   51 type  2   force =     0.00003046   -0.00003046    0.00012182
     atom   52 type  2   force =     0.00026115   -0.00026115   -0.00026115
     atom   53 type  2   force =     0.00003491   -0.00003491   -0.00003491
     atom   54 type  2   force =    -0.00033399    0.00033399   -0.00013843
     atom   55 type  2   force =    -0.00033399   -0.00013843    0.00033399
     atom   56 type  2   force =    -0.00012182   -0.00003046   -0.00003046
     atom   57 type  2   force =     0.00026115    0.00026115    0.00026115
     atom   58 type  2   force =     0.00003046    0.00003046   -0.00012182
     atom   59 type  2   force =     0.00003046   -0.00012182    0.00003046
     atom   60 type  2   force =     0.00013843   -0.00033399   -0.00033399
     atom   61 type  2   force =    -0.00012182    0.00003046    0.00003046
     atom   62 type  2   force =    -0.00033399    0.00013843   -0.00033399
     atom   63 type  2   force =    -0.00033399   -0.00033399    0.00013843
     atom   64 type  2   force =     0.00003491    0.00003491    0.00003491

     Total force =     0.002992     Total SCF correction =     0.000002


     Computing stress (Cartesian axis) and pressure

          total   stress  (Ry/bohr**3)                   (kbar)     P=    0.09
   0.00000062   0.00000000   0.00000000          0.09      0.00      0.00
   0.00000000   0.00000062   0.00000000          0.00      0.09      0.00
   0.00000000   0.00000000   0.00000062          0.00      0.00      0.09


     Writing output data file scf_b.save
 
     init_run     :      8.07s CPU     10.33s WALL (       2 calls)
     electrons    :    278.49s CPU    292.86s WALL (       7 calls)
     update_pot   :      7.51s CPU      7.94s WALL (       5 calls)
     forces       :     11.56s CPU     11.93s WALL (       7 calls)
     stress       :     38.11s CPU     38.55s WALL (       7 calls)

     Called by init_run:
     wfcinit      :      1.82s CPU      2.74s WALL (       2 calls)
     potinit      :      0.63s CPU      0.91s WALL (       2 calls)

     Called by electrons:
     c_bands      :    212.11s CPU    224.61s WALL (      99 calls)
     sum_band     :     40.65s CPU     41.11s WALL (      99 calls)
     v_of_rho     :      1.10s CPU      1.21s WALL (     102 calls)
     newd         :     20.64s CPU     20.79s WALL (     102 calls)
     mix_rho      :      0.89s CPU      1.12s WALL (      99 calls)

     Called by c_bands:
     init_us_2    :      0.87s CPU      0.88s WALL (     200 calls)
     cegterg      :    171.41s CPU    183.40s WALL (     100 calls)

     Called by sum_band:
     sum_band:bec :      0.48s CPU      0.49s WALL (      99 calls)
     addusdens    :     21.93s CPU     21.97s WALL (      99 calls)

     Called by *egterg:
     h_psi        :     70.34s CPU     71.26s WALL (     405 calls)
     s_psi        :     12.00s CPU     12.04s WALL (     405 calls)
     g_psi        :      0.14s CPU      0.14s WALL (     303 calls)
     cdiaghg      :     66.44s CPU     76.15s WALL (     393 calls)

     Called by h_psi:
     h_psi:pot    :     70.11s CPU     71.03s WALL (     405 calls)
     h_psi:calbec :     11.04s CPU     11.10s WALL (     405 calls)
     vloc_psi     :     46.11s CPU     46.82s WALL (     405 calls)
     vloc_psi:tg_ :      0.54s CPU      0.55s WALL (     405 calls)
     add_vuspsi   :     12.94s CPU     12.96s WALL (     405 calls)

     General routines
     calbec       :     16.50s CPU     16.60s WALL (     539 calls)
     fft          :      2.75s CPU      3.19s WALL (     967 calls)
     ffts         :      0.38s CPU      0.42s WALL (     201 calls)
     fftw         :     46.89s CPU     47.61s WALL (    6394 calls)
     interpolate  :      1.02s CPU      1.08s WALL (     201 calls)
     davcio       :      0.00s CPU      0.02s WALL (       7 calls)
 
     Parallel routines
     fft_scatter  :     15.45s CPU     15.88s WALL (    7562 calls)
     ALLTOALL     :      3.29s CPU      3.41s WALL (    6394 calls)
 
     PWSCF        :  5m58.74s CPU     6m40.29s WALL

 
   This run was terminated on:  16:51:27   8May2017            

=------------------------------------------------------------------------------=
   JOB DONE.
=------------------------------------------------------------------------------=
