SIRIUS 6.5.1, git hash: 03934cb413e35367d189966c763df8be178f72e3

     Program PWSCF v.6.5 starts on 10Mar2020 at 14:12: 7 

     This program is part of the open-source Quantum ESPRESSO suite
     for quantum simulation of materials; please cite
         "P. Giannozzi et al., J. Phys.:Condens. Matter 21 395502 (2009);
         "P. Giannozzi et al., J. Phys.:Condens. Matter 29 465901 (2017);
          URL http://www.quantum-espresso.org", 
     in publications or presentations arising from this work. More details at
     http://www.quantum-espresso.org/quote

     Parallel version (MPI & OpenMP), running on     324 processor cores
     Number of MPI processes:                36
     Threads/MPI process:                     9

     MPI processes distributed on     9 nodes
     R & G space division:  proc/nbgrp/npool/nimage =      36
     Reading input from pw.in
     Message from routine read_cards :
     DEPRECATED: no units specified in CELL_PARAMETERS card
Warning: card 1 1 1  0 0 0 ignored

     Current dimensions of program PWSCF are:
     Max number of different atomic species (ntypx) = 10
     Max number of k-points (npk) =  40000
     Max angular momentum in pseudopotentials (lmaxx) =  3
     Message from routine cell_base_init:
     DEPRECATED: use true lattice parameter, not A to a.u. conversion factor

     gamma-point specific algorithms are used

     Subspace diagonalization in iterative solution of the eigenvalue problem:
     one sub-group per band group will be used
     scalapack distributed-memory algorithm (size of sub-group:  6*  6 procs)

     Message from routine setup:
     using ibrav=0 with symmetry is DISCOURAGED, use correct ibrav instead
 
     Parallelization info
     --------------------
     sticks:   dense  smooth     PW     G-vecs:    dense   smooth      PW
     Min        2233     594    147               476854    65658    8212
     Max        2236     596    150               476861    65676    8226
     Sum       80461   21449   5377             17166821  2364101  295907
 


     bravais-lattice index     =            0
     lattice parameter (alat)  =       1.0000  a.u.
     unit-cell volume          =   69174.1805 (a.u.)^3
     number of atoms/cell      =          512
     number of atomic types    =            2
     number of electrons       =      2058.00
     number of Kohn-Sham states=         1235
     kinetic-energy cutoff     =      40.0000  Ry
     charge density cutoff     =     600.0000  Ry
     convergence threshold     =      1.0E-10
     mixing beta               =       0.7000
     number of iterations used =            8  plain     mixing
     Exchange-correlation= SLA  PZ   NOGX NOGC
                           (   1   1   0   0   0   0   0)

     celldm(1)=   1.000000  celldm(2)=   0.000000  celldm(3)=   0.000000
     celldm(4)=   0.000000  celldm(5)=   0.000000  celldm(6)=   0.000000

     crystal axes: (cart. coord. in units of alat)
               a(1) = (  41.050143   0.000000   0.000000 )  
               a(2) = (   0.000000  41.050143   0.000000 )  
               a(3) = (   0.000000   0.000000  41.050143 )  

     reciprocal axes: (cart. coord. in units 2 pi/alat)
               b(1) = (  0.024360  0.000000  0.000000 )  
               b(2) = (  0.000000  0.024360  0.000000 )  
               b(3) = (  0.000000  0.000000  0.024360 )  


     PseudoPot. # 1 for Ge read from file:
     ./ge_lda_v1.uspp.F.UPF
     MD5 check sum: 575f587c0f86b3eee266efe92ef02c15
     Pseudo is Ultrasoft + core correction, Zval = 14.0
     Generated by new atomic code, or converted to UPF format
     Using radial grid of  873 points,  6 beta functions with: 
                l(1) =   0
                l(2) =   0
                l(3) =   1
                l(4) =   1
                l(5) =   2
                l(6) =   2
     Q(r) pseudized with  8 coefficients,  rinner =    1.400   1.400   1.400
                                                       1.400   1.400

     PseudoPot. # 2 for Si read from file:
     ./si_lda_v1.uspp.F.UPF
     MD5 check sum: ca10e49b2835512e91ee5100d37237e0
     Pseudo is Ultrasoft + core correction, Zval =  4.0
     Generated by new atomic code, or converted to UPF format
     Using radial grid of  899 points,  6 beta functions with: 
                l(1) =   0
                l(2) =   0
                l(3) =   1
                l(4) =   1
                l(5) =   2
                l(6) =   2
     Q(r) pseudized with  8 coefficients,  rinner =    0.900   0.900   0.900
                                                       0.900   0.900

     atomic species   valence    mass     pseudopotential
        Ge            14.00    72.61000     Ge( 1.00)
        Si             4.00    28.08550     Si( 1.00)

     24 Sym. Ops. (no inversion) found



   Cartesian axes

     site n.     atom                  positions (alat units)
         1           Ge  tau(   1) = (   0.0000000   0.0000000   0.0000000  )
         2           Si  tau(   2) = (  20.5250715  20.5250715  20.5250715  )
         3           Si  tau(   3) = (  20.5250715  20.5250715  30.7876073  )
         4           Si  tau(   4) = (  20.5250715  20.5250715   0.0000000  )
         5           Si  tau(   5) = (  20.5250715  20.5250715  10.2625357  )
         6           Si  tau(   6) = (  20.5250715  30.7876073  20.5250715  )
         7           Si  tau(   7) = (  20.5250715  30.7876073  30.7876073  )
         8           Si  tau(   8) = (  20.5250715  30.7876073   0.0000000  )
         9           Si  tau(   9) = (  20.5250715  30.7876073  10.2625357  )
        10           Si  tau(  10) = (  20.5250715   0.0000000  20.5250715  )
        11           Si  tau(  11) = (  20.5250715   0.0000000  30.7876073  )
        12           Si  tau(  12) = (  20.5250715   0.0000000   0.0000000  )
        13           Si  tau(  13) = (  20.5250715   0.0000000  10.2625357  )
        14           Si  tau(  14) = (  20.5250715  10.2625357  20.5250715  )
        15           Si  tau(  15) = (  20.5250715  10.2625357  30.7876073  )
        16           Si  tau(  16) = (  20.5250715  10.2625357   0.0000000  )
        17           Si  tau(  17) = (  20.5250715  10.2625357  10.2625357  )
        18           Si  tau(  18) = (  30.7876073  20.5250715  20.5250715  )
        19           Si  tau(  19) = (  30.7876073  20.5250715  30.7876073  )
        20           Si  tau(  20) = (  30.7876073  20.5250715   0.0000000  )
        21           Si  tau(  21) = (  30.7876073  20.5250715  10.2625357  )
        22           Si  tau(  22) = (  30.7876073  30.7876073  20.5250715  )
        23           Si  tau(  23) = (  30.7876073  30.7876073  30.7876073  )
        24           Si  tau(  24) = (  30.7876073  30.7876073   0.0000000  )
        25           Si  tau(  25) = (  30.7876073  30.7876073  10.2625357  )
        26           Si  tau(  26) = (  30.7876073   0.0000000  20.5250715  )
        27           Si  tau(  27) = (  30.7876073   0.0000000  30.7876073  )
        28           Si  tau(  28) = (  30.7876073   0.0000000   0.0000000  )
        29           Si  tau(  29) = (  30.7876073   0.0000000  10.2625357  )
        30           Si  tau(  30) = (  30.7876073  10.2625357  20.5250715  )
        31           Si  tau(  31) = (  30.7876073  10.2625357  30.7876073  )
        32           Si  tau(  32) = (  30.7876073  10.2625357   0.0000000  )
        33           Si  tau(  33) = (  30.7876073  10.2625357  10.2625357  )
        34           Si  tau(  34) = (   0.0000000  20.5250715  20.5250715  )
        35           Si  tau(  35) = (   0.0000000  20.5250715  30.7876073  )
        36           Si  tau(  36) = (   0.0000000  20.5250715   0.0000000  )
        37           Si  tau(  37) = (   0.0000000  20.5250715  10.2625357  )
        38           Si  tau(  38) = (   0.0000000  30.7876073  20.5250715  )
        39           Si  tau(  39) = (   0.0000000  30.7876073  30.7876073  )
        40           Si  tau(  40) = (   0.0000000  30.7876073   0.0000000  )
        41           Si  tau(  41) = (   0.0000000  30.7876073  10.2625357  )
        42           Si  tau(  42) = (   0.0000000   0.0000000  20.5250715  )
        43           Si  tau(  43) = (   0.0000000   0.0000000  30.7876073  )
        44           Si  tau(  44) = (   0.0000000   0.0000000  10.2625357  )
        45           Si  tau(  45) = (   0.0000000  10.2625357  20.5250715  )
        46           Si  tau(  46) = (   0.0000000  10.2625357  30.7876073  )
        47           Si  tau(  47) = (   0.0000000  10.2625357   0.0000000  )
        48           Si  tau(  48) = (   0.0000000  10.2625357  10.2625357  )
        49           Si  tau(  49) = (  10.2625357  20.5250715  20.5250715  )
        50           Si  tau(  50) = (  10.2625357  20.5250715  30.7876073  )
        51           Si  tau(  51) = (  10.2625357  20.5250715   0.0000000  )
        52           Si  tau(  52) = (  10.2625357  20.5250715  10.2625357  )
        53           Si  tau(  53) = (  10.2625357  30.7876073  20.5250715  )
        54           Si  tau(  54) = (  10.2625357  30.7876073  30.7876073  )
        55           Si  tau(  55) = (  10.2625357  30.7876073   0.0000000  )
        56           Si  tau(  56) = (  10.2625357  30.7876073  10.2625357  )
        57           Si  tau(  57) = (  10.2625357   0.0000000  20.5250715  )
        58           Si  tau(  58) = (  10.2625357   0.0000000  30.7876073  )
        59           Si  tau(  59) = (  10.2625357   0.0000000   0.0000000  )
        60           Si  tau(  60) = (  10.2625357   0.0000000  10.2625357  )
        61           Si  tau(  61) = (  10.2625357  10.2625357  20.5250715  )
        62           Si  tau(  62) = (  10.2625357  10.2625357  30.7876073  )
        63           Si  tau(  63) = (  10.2625357  10.2625357   0.0000000  )
        64           Si  tau(  64) = (  10.2625357  10.2625357  10.2625357  )
        65           Si  tau(  65) = (  20.5250715  25.6563394  25.6563394  )
        66           Si  tau(  66) = (  20.5250715  25.6563394  35.9188751  )
        67           Si  tau(  67) = (  20.5250715  25.6563394   5.1312679  )
        68           Si  tau(  68) = (  20.5250715  25.6563394  15.3938036  )
        69           Si  tau(  69) = (  20.5250715  35.9188751  25.6563394  )
        70           Si  tau(  70) = (  20.5250715  35.9188751  35.9188751  )
        71           Si  tau(  71) = (  20.5250715  35.9188751   5.1312679  )
        72           Si  tau(  72) = (  20.5250715  35.9188751  15.3938036  )
        73           Si  tau(  73) = (  20.5250715   5.1312679  25.6563394  )
        74           Si  tau(  74) = (  20.5250715   5.1312679  35.9188751  )
        75           Si  tau(  75) = (  20.5250715   5.1312679   5.1312679  )
        76           Si  tau(  76) = (  20.5250715   5.1312679  15.3938036  )
        77           Si  tau(  77) = (  20.5250715  15.3938036  25.6563394  )
        78           Si  tau(  78) = (  20.5250715  15.3938036  35.9188751  )
        79           Si  tau(  79) = (  20.5250715  15.3938036   5.1312679  )
        80           Si  tau(  80) = (  20.5250715  15.3938036  15.3938036  )
        81           Si  tau(  81) = (  30.7876073  25.6563394  25.6563394  )
        82           Si  tau(  82) = (  30.7876073  25.6563394  35.9188751  )
        83           Si  tau(  83) = (  30.7876073  25.6563394   5.1312679  )
        84           Si  tau(  84) = (  30.7876073  25.6563394  15.3938036  )
        85           Si  tau(  85) = (  30.7876073  35.9188751  25.6563394  )
        86           Si  tau(  86) = (  30.7876073  35.9188751  35.9188751  )
        87           Si  tau(  87) = (  30.7876073  35.9188751   5.1312679  )
        88           Si  tau(  88) = (  30.7876073  35.9188751  15.3938036  )
        89           Si  tau(  89) = (  30.7876073   5.1312679  25.6563394  )
        90           Si  tau(  90) = (  30.7876073   5.1312679  35.9188751  )
        91           Si  tau(  91) = (  30.7876073   5.1312679   5.1312679  )
        92           Si  tau(  92) = (  30.7876073   5.1312679  15.3938036  )
        93           Si  tau(  93) = (  30.7876073  15.3938036  25.6563394  )
        94           Si  tau(  94) = (  30.7876073  15.3938036  35.9188751  )
        95           Si  tau(  95) = (  30.7876073  15.3938036   5.1312679  )
        96           Si  tau(  96) = (  30.7876073  15.3938036  15.3938036  )
        97           Si  tau(  97) = (   0.0000000  25.6563394  25.6563394  )
        98           Si  tau(  98) = (   0.0000000  25.6563394  35.9188751  )
        99           Si  tau(  99) = (   0.0000000  25.6563394   5.1312679  )
       100           Si  tau( 100) = (   0.0000000  25.6563394  15.3938036  )
       101           Si  tau( 101) = (   0.0000000  35.9188751  25.6563394  )
       102           Si  tau( 102) = (   0.0000000  35.9188751  35.9188751  )
       103           Si  tau( 103) = (   0.0000000  35.9188751   5.1312679  )
       104           Si  tau( 104) = (   0.0000000  35.9188751  15.3938036  )
       105           Si  tau( 105) = (   0.0000000   5.1312679  25.6563394  )
       106           Si  tau( 106) = (   0.0000000   5.1312679  35.9188751  )
       107           Si  tau( 107) = (   0.0000000   5.1312679   5.1312679  )
       108           Si  tau( 108) = (   0.0000000   5.1312679  15.3938036  )
       109           Si  tau( 109) = (   0.0000000  15.3938036  25.6563394  )
       110           Si  tau( 110) = (   0.0000000  15.3938036  35.9188751  )
       111           Si  tau( 111) = (   0.0000000  15.3938036   5.1312679  )
       112           Si  tau( 112) = (   0.0000000  15.3938036  15.3938036  )
       113           Si  tau( 113) = (  10.2625357  25.6563394  25.6563394  )
       114           Si  tau( 114) = (  10.2625357  25.6563394  35.9188751  )
       115           Si  tau( 115) = (  10.2625357  25.6563394   5.1312679  )
       116           Si  tau( 116) = (  10.2625357  25.6563394  15.3938036  )
       117           Si  tau( 117) = (  10.2625357  35.9188751  25.6563394  )
       118           Si  tau( 118) = (  10.2625357  35.9188751  35.9188751  )
       119           Si  tau( 119) = (  10.2625357  35.9188751   5.1312679  )
       120           Si  tau( 120) = (  10.2625357  35.9188751  15.3938036  )
       121           Si  tau( 121) = (  10.2625357   5.1312679  25.6563394  )
       122           Si  tau( 122) = (  10.2625357   5.1312679  35.9188751  )
       123           Si  tau( 123) = (  10.2625357   5.1312679   5.1312679  )
       124           Si  tau( 124) = (  10.2625357   5.1312679  15.3938036  )
       125           Si  tau( 125) = (  10.2625357  15.3938036  25.6563394  )
       126           Si  tau( 126) = (  10.2625357  15.3938036  35.9188751  )
       127           Si  tau( 127) = (  10.2625357  15.3938036   5.1312679  )
       128           Si  tau( 128) = (  10.2625357  15.3938036  15.3938036  )
       129           Si  tau( 129) = (  25.6563394  20.5250715  25.6563394  )
       130           Si  tau( 130) = (  25.6563394  20.5250715  35.9188751  )
       131           Si  tau( 131) = (  25.6563394  20.5250715   5.1312679  )
       132           Si  tau( 132) = (  25.6563394  20.5250715  15.3938036  )
       133           Si  tau( 133) = (  25.6563394  30.7876073  25.6563394  )
       134           Si  tau( 134) = (  25.6563394  30.7876073  35.9188751  )
       135           Si  tau( 135) = (  25.6563394  30.7876073   5.1312679  )
       136           Si  tau( 136) = (  25.6563394  30.7876073  15.3938036  )
       137           Si  tau( 137) = (  25.6563394   0.0000000  25.6563394  )
       138           Si  tau( 138) = (  25.6563394   0.0000000  35.9188751  )
       139           Si  tau( 139) = (  25.6563394   0.0000000   5.1312679  )
       140           Si  tau( 140) = (  25.6563394   0.0000000  15.3938036  )
       141           Si  tau( 141) = (  25.6563394  10.2625357  25.6563394  )
       142           Si  tau( 142) = (  25.6563394  10.2625357  35.9188751  )
       143           Si  tau( 143) = (  25.6563394  10.2625357   5.1312679  )
       144           Si  tau( 144) = (  25.6563394  10.2625357  15.3938036  )
       145           Si  tau( 145) = (  35.9188751  20.5250715  25.6563394  )
       146           Si  tau( 146) = (  35.9188751  20.5250715  35.9188751  )
       147           Si  tau( 147) = (  35.9188751  20.5250715   5.1312679  )
       148           Si  tau( 148) = (  35.9188751  20.5250715  15.3938036  )
       149           Si  tau( 149) = (  35.9188751  30.7876073  25.6563394  )
       150           Si  tau( 150) = (  35.9188751  30.7876073  35.9188751  )
       151           Si  tau( 151) = (  35.9188751  30.7876073   5.1312679  )
       152           Si  tau( 152) = (  35.9188751  30.7876073  15.3938036  )
       153           Si  tau( 153) = (  35.9188751   0.0000000  25.6563394  )
       154           Si  tau( 154) = (  35.9188751   0.0000000  35.9188751  )
       155           Si  tau( 155) = (  35.9188751   0.0000000   5.1312679  )
       156           Si  tau( 156) = (  35.9188751   0.0000000  15.3938036  )
       157           Si  tau( 157) = (  35.9188751  10.2625357  25.6563394  )
       158           Si  tau( 158) = (  35.9188751  10.2625357  35.9188751  )
       159           Si  tau( 159) = (  35.9188751  10.2625357   5.1312679  )
       160           Si  tau( 160) = (  35.9188751  10.2625357  15.3938036  )
       161           Si  tau( 161) = (   5.1312679  20.5250715  25.6563394  )
       162           Si  tau( 162) = (   5.1312679  20.5250715  35.9188751  )
       163           Si  tau( 163) = (   5.1312679  20.5250715   5.1312679  )
       164           Si  tau( 164) = (   5.1312679  20.5250715  15.3938036  )
       165           Si  tau( 165) = (   5.1312679  30.7876073  25.6563394  )
       166           Si  tau( 166) = (   5.1312679  30.7876073  35.9188751  )
       167           Si  tau( 167) = (   5.1312679  30.7876073   5.1312679  )
       168           Si  tau( 168) = (   5.1312679  30.7876073  15.3938036  )
       169           Si  tau( 169) = (   5.1312679   0.0000000  25.6563394  )
       170           Si  tau( 170) = (   5.1312679   0.0000000  35.9188751  )
       171           Si  tau( 171) = (   5.1312679   0.0000000   5.1312679  )
       172           Si  tau( 172) = (   5.1312679   0.0000000  15.3938036  )
       173           Si  tau( 173) = (   5.1312679  10.2625357  25.6563394  )
       174           Si  tau( 174) = (   5.1312679  10.2625357  35.9188751  )
       175           Si  tau( 175) = (   5.1312679  10.2625357   5.1312679  )
       176           Si  tau( 176) = (   5.1312679  10.2625357  15.3938036  )
       177           Si  tau( 177) = (  15.3938036  20.5250715  25.6563394  )
       178           Si  tau( 178) = (  15.3938036  20.5250715  35.9188751  )
       179           Si  tau( 179) = (  15.3938036  20.5250715   5.1312679  )
       180           Si  tau( 180) = (  15.3938036  20.5250715  15.3938036  )
       181           Si  tau( 181) = (  15.3938036  30.7876073  25.6563394  )
       182           Si  tau( 182) = (  15.3938036  30.7876073  35.9188751  )
       183           Si  tau( 183) = (  15.3938036  30.7876073   5.1312679  )
       184           Si  tau( 184) = (  15.3938036  30.7876073  15.3938036  )
       185           Si  tau( 185) = (  15.3938036   0.0000000  25.6563394  )
       186           Si  tau( 186) = (  15.3938036   0.0000000  35.9188751  )
       187           Si  tau( 187) = (  15.3938036   0.0000000   5.1312679  )
       188           Si  tau( 188) = (  15.3938036   0.0000000  15.3938036  )
       189           Si  tau( 189) = (  15.3938036  10.2625357  25.6563394  )
       190           Si  tau( 190) = (  15.3938036  10.2625357  35.9188751  )
       191           Si  tau( 191) = (  15.3938036  10.2625357   5.1312679  )
       192           Si  tau( 192) = (  15.3938036  10.2625357  15.3938036  )
       193           Si  tau( 193) = (  25.6563394  25.6563394  20.5250715  )
       194           Si  tau( 194) = (  25.6563394  25.6563394  30.7876073  )
       195           Si  tau( 195) = (  25.6563394  25.6563394   0.0000000  )
       196           Si  tau( 196) = (  25.6563394  25.6563394  10.2625357  )
       197           Si  tau( 197) = (  25.6563394  35.9188751  20.5250715  )
       198           Si  tau( 198) = (  25.6563394  35.9188751  30.7876073  )
       199           Si  tau( 199) = (  25.6563394  35.9188751   0.0000000  )
       200           Si  tau( 200) = (  25.6563394  35.9188751  10.2625357  )
       201           Si  tau( 201) = (  25.6563394   5.1312679  20.5250715  )
       202           Si  tau( 202) = (  25.6563394   5.1312679  30.7876073  )
       203           Si  tau( 203) = (  25.6563394   5.1312679   0.0000000  )
       204           Si  tau( 204) = (  25.6563394   5.1312679  10.2625357  )
       205           Si  tau( 205) = (  25.6563394  15.3938036  20.5250715  )
       206           Si  tau( 206) = (  25.6563394  15.3938036  30.7876073  )
       207           Si  tau( 207) = (  25.6563394  15.3938036   0.0000000  )
       208           Si  tau( 208) = (  25.6563394  15.3938036  10.2625357  )
       209           Si  tau( 209) = (  35.9188751  25.6563394  20.5250715  )
       210           Si  tau( 210) = (  35.9188751  25.6563394  30.7876073  )
       211           Si  tau( 211) = (  35.9188751  25.6563394   0.0000000  )
       212           Si  tau( 212) = (  35.9188751  25.6563394  10.2625357  )
       213           Si  tau( 213) = (  35.9188751  35.9188751  20.5250715  )
       214           Si  tau( 214) = (  35.9188751  35.9188751  30.7876073  )
       215           Si  tau( 215) = (  35.9188751  35.9188751   0.0000000  )
       216           Si  tau( 216) = (  35.9188751  35.9188751  10.2625357  )
       217           Si  tau( 217) = (  35.9188751   5.1312679  20.5250715  )
       218           Si  tau( 218) = (  35.9188751   5.1312679  30.7876073  )
       219           Si  tau( 219) = (  35.9188751   5.1312679   0.0000000  )
       220           Si  tau( 220) = (  35.9188751   5.1312679  10.2625357  )
       221           Si  tau( 221) = (  35.9188751  15.3938036  20.5250715  )
       222           Si  tau( 222) = (  35.9188751  15.3938036  30.7876073  )
       223           Si  tau( 223) = (  35.9188751  15.3938036   0.0000000  )
       224           Si  tau( 224) = (  35.9188751  15.3938036  10.2625357  )
       225           Si  tau( 225) = (   5.1312679  25.6563394  20.5250715  )
       226           Si  tau( 226) = (   5.1312679  25.6563394  30.7876073  )
       227           Si  tau( 227) = (   5.1312679  25.6563394   0.0000000  )
       228           Si  tau( 228) = (   5.1312679  25.6563394  10.2625357  )
       229           Si  tau( 229) = (   5.1312679  35.9188751  20.5250715  )
       230           Si  tau( 230) = (   5.1312679  35.9188751  30.7876073  )
       231           Si  tau( 231) = (   5.1312679  35.9188751   0.0000000  )
       232           Si  tau( 232) = (   5.1312679  35.9188751  10.2625357  )
       233           Si  tau( 233) = (   5.1312679   5.1312679  20.5250715  )
       234           Si  tau( 234) = (   5.1312679   5.1312679  30.7876073  )
       235           Si  tau( 235) = (   5.1312679   5.1312679   0.0000000  )
       236           Si  tau( 236) = (   5.1312679   5.1312679  10.2625357  )
       237           Si  tau( 237) = (   5.1312679  15.3938036  20.5250715  )
       238           Si  tau( 238) = (   5.1312679  15.3938036  30.7876073  )
       239           Si  tau( 239) = (   5.1312679  15.3938036   0.0000000  )
       240           Si  tau( 240) = (   5.1312679  15.3938036  10.2625357  )
       241           Si  tau( 241) = (  15.3938036  25.6563394  20.5250715  )
       242           Si  tau( 242) = (  15.3938036  25.6563394  30.7876073  )
       243           Si  tau( 243) = (  15.3938036  25.6563394   0.0000000  )
       244           Si  tau( 244) = (  15.3938036  25.6563394  10.2625357  )
       245           Si  tau( 245) = (  15.3938036  35.9188751  20.5250715  )
       246           Si  tau( 246) = (  15.3938036  35.9188751  30.7876073  )
       247           Si  tau( 247) = (  15.3938036  35.9188751   0.0000000  )
       248           Si  tau( 248) = (  15.3938036  35.9188751  10.2625357  )
       249           Si  tau( 249) = (  15.3938036   5.1312679  20.5250715  )
       250           Si  tau( 250) = (  15.3938036   5.1312679  30.7876073  )
       251           Si  tau( 251) = (  15.3938036   5.1312679   0.0000000  )
       252           Si  tau( 252) = (  15.3938036   5.1312679  10.2625357  )
       253           Si  tau( 253) = (  15.3938036  15.3938036  20.5250715  )
       254           Si  tau( 254) = (  15.3938036  15.3938036  30.7876073  )
       255           Si  tau( 255) = (  15.3938036  15.3938036   0.0000000  )
       256           Si  tau( 256) = (  15.3938036  15.3938036  10.2625357  )
       257           Si  tau( 257) = (  28.2219733  28.2219733  23.0907054  )
       258           Si  tau( 258) = (  28.2219733  28.2219733  33.3532412  )
       259           Si  tau( 259) = (  28.2219733  28.2219733   2.5656339  )
       260           Si  tau( 260) = (  28.2219733  28.2219733  12.8281697  )
       261           Si  tau( 261) = (  28.2219733  38.4845091  23.0907054  )
       262           Si  tau( 262) = (  28.2219733  38.4845091  33.3532412  )
       263           Si  tau( 263) = (  28.2219733  38.4845091   2.5656339  )
       264           Si  tau( 264) = (  28.2219733  38.4845091  12.8281697  )
       265           Si  tau( 265) = (  28.2219733   7.6969018  23.0907054  )
       266           Si  tau( 266) = (  28.2219733   7.6969018  33.3532412  )
       267           Si  tau( 267) = (  28.2219733   7.6969018   2.5656339  )
       268           Si  tau( 268) = (  28.2219733   7.6969018  12.8281697  )
       269           Si  tau( 269) = (  28.2219733  17.9594376  23.0907054  )
       270           Si  tau( 270) = (  28.2219733  17.9594376  33.3532412  )
       271           Si  tau( 271) = (  28.2219733  17.9594376   2.5656339  )
       272           Si  tau( 272) = (  28.2219733  17.9594376  12.8281697  )
       273           Si  tau( 273) = (  38.4845091  28.2219733  23.0907054  )
       274           Si  tau( 274) = (  38.4845091  28.2219733  33.3532412  )
       275           Si  tau( 275) = (  38.4845091  28.2219733   2.5656339  )
       276           Si  tau( 276) = (  38.4845091  28.2219733  12.8281697  )
       277           Si  tau( 277) = (  38.4845091  38.4845091  23.0907054  )
       278           Si  tau( 278) = (  38.4845091  38.4845091  33.3532412  )
       279           Si  tau( 279) = (  38.4845091  38.4845091   2.5656339  )
       280           Si  tau( 280) = (  38.4845091  38.4845091  12.8281697  )
       281           Si  tau( 281) = (  38.4845091   7.6969018  23.0907054  )
       282           Si  tau( 282) = (  38.4845091   7.6969018  33.3532412  )
       283           Si  tau( 283) = (  38.4845091   7.6969018   2.5656339  )
       284           Si  tau( 284) = (  38.4845091   7.6969018  12.8281697  )
       285           Si  tau( 285) = (  38.4845091  17.9594376  23.0907054  )
       286           Si  tau( 286) = (  38.4845091  17.9594376  33.3532412  )
       287           Si  tau( 287) = (  38.4845091  17.9594376   2.5656339  )
       288           Si  tau( 288) = (  38.4845091  17.9594376  12.8281697  )
       289           Si  tau( 289) = (   7.6969018  28.2219733  23.0907054  )
       290           Si  tau( 290) = (   7.6969018  28.2219733  33.3532412  )
       291           Si  tau( 291) = (   7.6969018  28.2219733   2.5656339  )
       292           Si  tau( 292) = (   7.6969018  28.2219733  12.8281697  )
       293           Si  tau( 293) = (   7.6969018  38.4845091  23.0907054  )
       294           Si  tau( 294) = (   7.6969018  38.4845091  33.3532412  )
       295           Si  tau( 295) = (   7.6969018  38.4845091   2.5656339  )
       296           Si  tau( 296) = (   7.6969018  38.4845091  12.8281697  )
       297           Si  tau( 297) = (   7.6969018   7.6969018  23.0907054  )
       298           Si  tau( 298) = (   7.6969018   7.6969018  33.3532412  )
       299           Si  tau( 299) = (   7.6969018   7.6969018   2.5656339  )
       300           Si  tau( 300) = (   7.6969018   7.6969018  12.8281697  )
       301           Si  tau( 301) = (   7.6969018  17.9594376  23.0907054  )
       302           Si  tau( 302) = (   7.6969018  17.9594376  33.3532412  )
       303           Si  tau( 303) = (   7.6969018  17.9594376   2.5656339  )
       304           Si  tau( 304) = (   7.6969018  17.9594376  12.8281697  )
       305           Si  tau( 305) = (  17.9594376  28.2219733  23.0907054  )
       306           Si  tau( 306) = (  17.9594376  28.2219733  33.3532412  )
       307           Si  tau( 307) = (  17.9594376  28.2219733   2.5656339  )
       308           Si  tau( 308) = (  17.9594376  28.2219733  12.8281697  )
       309           Si  tau( 309) = (  17.9594376  38.4845091  23.0907054  )
       310           Si  tau( 310) = (  17.9594376  38.4845091  33.3532412  )
       311           Si  tau( 311) = (  17.9594376  38.4845091   2.5656339  )
       312           Si  tau( 312) = (  17.9594376  38.4845091  12.8281697  )
       313           Si  tau( 313) = (  17.9594376   7.6969018  23.0907054  )
       314           Si  tau( 314) = (  17.9594376   7.6969018  33.3532412  )
       315           Si  tau( 315) = (  17.9594376   7.6969018   2.5656339  )
       316           Si  tau( 316) = (  17.9594376   7.6969018  12.8281697  )
       317           Si  tau( 317) = (  17.9594376  17.9594376  23.0907054  )
       318           Si  tau( 318) = (  17.9594376  17.9594376  33.3532412  )
       319           Si  tau( 319) = (  17.9594376  17.9594376   2.5656339  )
       320           Si  tau( 320) = (  17.9594376  17.9594376  12.8281697  )
       321           Si  tau( 321) = (  28.2219733  23.0907054  28.2219733  )
       322           Si  tau( 322) = (  28.2219733  23.0907054  38.4845091  )
       323           Si  tau( 323) = (  28.2219733  23.0907054   7.6969018  )
       324           Si  tau( 324) = (  28.2219733  23.0907054  17.9594376  )
       325           Si  tau( 325) = (  28.2219733  33.3532412  28.2219733  )
       326           Si  tau( 326) = (  28.2219733  33.3532412  38.4845091  )
       327           Si  tau( 327) = (  28.2219733  33.3532412   7.6969018  )
       328           Si  tau( 328) = (  28.2219733  33.3532412  17.9594376  )
       329           Si  tau( 329) = (  28.2219733   2.5656339  28.2219733  )
       330           Si  tau( 330) = (  28.2219733   2.5656339  38.4845091  )
       331           Si  tau( 331) = (  28.2219733   2.5656339   7.6969018  )
       332           Si  tau( 332) = (  28.2219733   2.5656339  17.9594376  )
       333           Si  tau( 333) = (  28.2219733  12.8281697  28.2219733  )
       334           Si  tau( 334) = (  28.2219733  12.8281697  38.4845091  )
       335           Si  tau( 335) = (  28.2219733  12.8281697   7.6969018  )
       336           Si  tau( 336) = (  28.2219733  12.8281697  17.9594376  )
       337           Si  tau( 337) = (  38.4845091  23.0907054  28.2219733  )
       338           Si  tau( 338) = (  38.4845091  23.0907054  38.4845091  )
       339           Si  tau( 339) = (  38.4845091  23.0907054   7.6969018  )
       340           Si  tau( 340) = (  38.4845091  23.0907054  17.9594376  )
       341           Si  tau( 341) = (  38.4845091  33.3532412  28.2219733  )
       342           Si  tau( 342) = (  38.4845091  33.3532412  38.4845091  )
       343           Si  tau( 343) = (  38.4845091  33.3532412   7.6969018  )
       344           Si  tau( 344) = (  38.4845091  33.3532412  17.9594376  )
       345           Si  tau( 345) = (  38.4845091   2.5656339  28.2219733  )
       346           Si  tau( 346) = (  38.4845091   2.5656339  38.4845091  )
       347           Si  tau( 347) = (  38.4845091   2.5656339   7.6969018  )
       348           Si  tau( 348) = (  38.4845091   2.5656339  17.9594376  )
       349           Si  tau( 349) = (  38.4845091  12.8281697  28.2219733  )
       350           Si  tau( 350) = (  38.4845091  12.8281697  38.4845091  )
       351           Si  tau( 351) = (  38.4845091  12.8281697   7.6969018  )
       352           Si  tau( 352) = (  38.4845091  12.8281697  17.9594376  )
       353           Si  tau( 353) = (   7.6969018  23.0907054  28.2219733  )
       354           Si  tau( 354) = (   7.6969018  23.0907054  38.4845091  )
       355           Si  tau( 355) = (   7.6969018  23.0907054   7.6969018  )
       356           Si  tau( 356) = (   7.6969018  23.0907054  17.9594376  )
       357           Si  tau( 357) = (   7.6969018  33.3532412  28.2219733  )
       358           Si  tau( 358) = (   7.6969018  33.3532412  38.4845091  )
       359           Si  tau( 359) = (   7.6969018  33.3532412   7.6969018  )
       360           Si  tau( 360) = (   7.6969018  33.3532412  17.9594376  )
       361           Si  tau( 361) = (   7.6969018   2.5656339  28.2219733  )
       362           Si  tau( 362) = (   7.6969018   2.5656339  38.4845091  )
       363           Si  tau( 363) = (   7.6969018   2.5656339   7.6969018  )
       364           Si  tau( 364) = (   7.6969018   2.5656339  17.9594376  )
       365           Si  tau( 365) = (   7.6969018  12.8281697  28.2219733  )
       366           Si  tau( 366) = (   7.6969018  12.8281697  38.4845091  )
       367           Si  tau( 367) = (   7.6969018  12.8281697   7.6969018  )
       368           Si  tau( 368) = (   7.6969018  12.8281697  17.9594376  )
       369           Si  tau( 369) = (  17.9594376  23.0907054  28.2219733  )
       370           Si  tau( 370) = (  17.9594376  23.0907054  38.4845091  )
       371           Si  tau( 371) = (  17.9594376  23.0907054   7.6969018  )
       372           Si  tau( 372) = (  17.9594376  23.0907054  17.9594376  )
       373           Si  tau( 373) = (  17.9594376  33.3532412  28.2219733  )
       374           Si  tau( 374) = (  17.9594376  33.3532412  38.4845091  )
       375           Si  tau( 375) = (  17.9594376  33.3532412   7.6969018  )
       376           Si  tau( 376) = (  17.9594376  33.3532412  17.9594376  )
       377           Si  tau( 377) = (  17.9594376   2.5656339  28.2219733  )
       378           Si  tau( 378) = (  17.9594376   2.5656339  38.4845091  )
       379           Si  tau( 379) = (  17.9594376   2.5656339   7.6969018  )
       380           Si  tau( 380) = (  17.9594376   2.5656339  17.9594376  )
       381           Si  tau( 381) = (  17.9594376  12.8281697  28.2219733  )
       382           Si  tau( 382) = (  17.9594376  12.8281697  38.4845091  )
       383           Si  tau( 383) = (  17.9594376  12.8281697   7.6969018  )
       384           Si  tau( 384) = (  17.9594376  12.8281697  17.9594376  )
       385           Si  tau( 385) = (  23.0907054  28.2219733  28.2219733  )
       386           Si  tau( 386) = (  23.0907054  28.2219733  38.4845091  )
       387           Si  tau( 387) = (  23.0907054  28.2219733   7.6969018  )
       388           Si  tau( 388) = (  23.0907054  28.2219733  17.9594376  )
       389           Si  tau( 389) = (  23.0907054  38.4845091  28.2219733  )
       390           Si  tau( 390) = (  23.0907054  38.4845091  38.4845091  )
       391           Si  tau( 391) = (  23.0907054  38.4845091   7.6969018  )
       392           Si  tau( 392) = (  23.0907054  38.4845091  17.9594376  )
       393           Si  tau( 393) = (  23.0907054   7.6969018  28.2219733  )
       394           Si  tau( 394) = (  23.0907054   7.6969018  38.4845091  )
       395           Si  tau( 395) = (  23.0907054   7.6969018   7.6969018  )
       396           Si  tau( 396) = (  23.0907054   7.6969018  17.9594376  )
       397           Si  tau( 397) = (  23.0907054  17.9594376  28.2219733  )
       398           Si  tau( 398) = (  23.0907054  17.9594376  38.4845091  )
       399           Si  tau( 399) = (  23.0907054  17.9594376   7.6969018  )
       400           Si  tau( 400) = (  23.0907054  17.9594376  17.9594376  )
       401           Si  tau( 401) = (  33.3532412  28.2219733  28.2219733  )
       402           Si  tau( 402) = (  33.3532412  28.2219733  38.4845091  )
       403           Si  tau( 403) = (  33.3532412  28.2219733   7.6969018  )
       404           Si  tau( 404) = (  33.3532412  28.2219733  17.9594376  )
       405           Si  tau( 405) = (  33.3532412  38.4845091  28.2219733  )
       406           Si  tau( 406) = (  33.3532412  38.4845091  38.4845091  )
       407           Si  tau( 407) = (  33.3532412  38.4845091   7.6969018  )
       408           Si  tau( 408) = (  33.3532412  38.4845091  17.9594376  )
       409           Si  tau( 409) = (  33.3532412   7.6969018  28.2219733  )
       410           Si  tau( 410) = (  33.3532412   7.6969018  38.4845091  )
       411           Si  tau( 411) = (  33.3532412   7.6969018   7.6969018  )
       412           Si  tau( 412) = (  33.3532412   7.6969018  17.9594376  )
       413           Si  tau( 413) = (  33.3532412  17.9594376  28.2219733  )
       414           Si  tau( 414) = (  33.3532412  17.9594376  38.4845091  )
       415           Si  tau( 415) = (  33.3532412  17.9594376   7.6969018  )
       416           Si  tau( 416) = (  33.3532412  17.9594376  17.9594376  )
       417           Si  tau( 417) = (   2.5656339  28.2219733  28.2219733  )
       418           Si  tau( 418) = (   2.5656339  28.2219733  38.4845091  )
       419           Si  tau( 419) = (   2.5656339  28.2219733   7.6969018  )
       420           Si  tau( 420) = (   2.5656339  28.2219733  17.9594376  )
       421           Si  tau( 421) = (   2.5656339  38.4845091  28.2219733  )
       422           Si  tau( 422) = (   2.5656339  38.4845091  38.4845091  )
       423           Si  tau( 423) = (   2.5656339  38.4845091   7.6969018  )
       424           Si  tau( 424) = (   2.5656339  38.4845091  17.9594376  )
       425           Si  tau( 425) = (   2.5656339   7.6969018  28.2219733  )
       426           Si  tau( 426) = (   2.5656339   7.6969018  38.4845091  )
       427           Si  tau( 427) = (   2.5656339   7.6969018   7.6969018  )
       428           Si  tau( 428) = (   2.5656339   7.6969018  17.9594376  )
       429           Si  tau( 429) = (   2.5656339  17.9594376  28.2219733  )
       430           Si  tau( 430) = (   2.5656339  17.9594376  38.4845091  )
       431           Si  tau( 431) = (   2.5656339  17.9594376   7.6969018  )
       432           Si  tau( 432) = (   2.5656339  17.9594376  17.9594376  )
       433           Si  tau( 433) = (  12.8281697  28.2219733  28.2219733  )
       434           Si  tau( 434) = (  12.8281697  28.2219733  38.4845091  )
       435           Si  tau( 435) = (  12.8281697  28.2219733   7.6969018  )
       436           Si  tau( 436) = (  12.8281697  28.2219733  17.9594376  )
       437           Si  tau( 437) = (  12.8281697  38.4845091  28.2219733  )
       438           Si  tau( 438) = (  12.8281697  38.4845091  38.4845091  )
       439           Si  tau( 439) = (  12.8281697  38.4845091   7.6969018  )
       440           Si  tau( 440) = (  12.8281697  38.4845091  17.9594376  )
       441           Si  tau( 441) = (  12.8281697   7.6969018  28.2219733  )
       442           Si  tau( 442) = (  12.8281697   7.6969018  38.4845091  )
       443           Si  tau( 443) = (  12.8281697   7.6969018   7.6969018  )
       444           Si  tau( 444) = (  12.8281697   7.6969018  17.9594376  )
       445           Si  tau( 445) = (  12.8281697  17.9594376  28.2219733  )
       446           Si  tau( 446) = (  12.8281697  17.9594376  38.4845091  )
       447           Si  tau( 447) = (  12.8281697  17.9594376   7.6969018  )
       448           Si  tau( 448) = (  12.8281697  17.9594376  17.9594376  )
       449           Si  tau( 449) = (  23.0907054  23.0907054  23.0907054  )
       450           Si  tau( 450) = (  23.0907054  23.0907054  33.3532412  )
       451           Si  tau( 451) = (  23.0907054  23.0907054   2.5656339  )
       452           Si  tau( 452) = (  23.0907054  23.0907054  12.8281697  )
       453           Si  tau( 453) = (  23.0907054  33.3532412  23.0907054  )
       454           Si  tau( 454) = (  23.0907054  33.3532412  33.3532412  )
       455           Si  tau( 455) = (  23.0907054  33.3532412   2.5656339  )
       456           Si  tau( 456) = (  23.0907054  33.3532412  12.8281697  )
       457           Si  tau( 457) = (  23.0907054   2.5656339  23.0907054  )
       458           Si  tau( 458) = (  23.0907054   2.5656339  33.3532412  )
       459           Si  tau( 459) = (  23.0907054   2.5656339   2.5656339  )
       460           Si  tau( 460) = (  23.0907054   2.5656339  12.8281697  )
       461           Si  tau( 461) = (  23.0907054  12.8281697  23.0907054  )
       462           Si  tau( 462) = (  23.0907054  12.8281697  33.3532412  )
       463           Si  tau( 463) = (  23.0907054  12.8281697   2.5656339  )
       464           Si  tau( 464) = (  23.0907054  12.8281697  12.8281697  )
       465           Si  tau( 465) = (  33.3532412  23.0907054  23.0907054  )
       466           Si  tau( 466) = (  33.3532412  23.0907054  33.3532412  )
       467           Si  tau( 467) = (  33.3532412  23.0907054   2.5656339  )
       468           Si  tau( 468) = (  33.3532412  23.0907054  12.8281697  )
       469           Si  tau( 469) = (  33.3532412  33.3532412  23.0907054  )
       470           Si  tau( 470) = (  33.3532412  33.3532412  33.3532412  )
       471           Si  tau( 471) = (  33.3532412  33.3532412   2.5656339  )
       472           Si  tau( 472) = (  33.3532412  33.3532412  12.8281697  )
       473           Si  tau( 473) = (  33.3532412   2.5656339  23.0907054  )
       474           Si  tau( 474) = (  33.3532412   2.5656339  33.3532412  )
       475           Si  tau( 475) = (  33.3532412   2.5656339   2.5656339  )
       476           Si  tau( 476) = (  33.3532412   2.5656339  12.8281697  )
       477           Si  tau( 477) = (  33.3532412  12.8281697  23.0907054  )
       478           Si  tau( 478) = (  33.3532412  12.8281697  33.3532412  )
       479           Si  tau( 479) = (  33.3532412  12.8281697   2.5656339  )
       480           Si  tau( 480) = (  33.3532412  12.8281697  12.8281697  )
       481           Si  tau( 481) = (   2.5656339  23.0907054  23.0907054  )
       482           Si  tau( 482) = (   2.5656339  23.0907054  33.3532412  )
       483           Si  tau( 483) = (   2.5656339  23.0907054   2.5656339  )
       484           Si  tau( 484) = (   2.5656339  23.0907054  12.8281697  )
       485           Si  tau( 485) = (   2.5656339  33.3532412  23.0907054  )
       486           Si  tau( 486) = (   2.5656339  33.3532412  33.3532412  )
       487           Si  tau( 487) = (   2.5656339  33.3532412   2.5656339  )
       488           Si  tau( 488) = (   2.5656339  33.3532412  12.8281697  )
       489           Si  tau( 489) = (   2.5656339   2.5656339  23.0907054  )
       490           Si  tau( 490) = (   2.5656339   2.5656339  33.3532412  )
       491           Si  tau( 491) = (   2.5656339   2.5656339   2.5656339  )
       492           Si  tau( 492) = (   2.5656339   2.5656339  12.8281697  )
       493           Si  tau( 493) = (   2.5656339  12.8281697  23.0907054  )
       494           Si  tau( 494) = (   2.5656339  12.8281697  33.3532412  )
       495           Si  tau( 495) = (   2.5656339  12.8281697   2.5656339  )
       496           Si  tau( 496) = (   2.5656339  12.8281697  12.8281697  )
       497           Si  tau( 497) = (  12.8281697  23.0907054  23.0907054  )
       498           Si  tau( 498) = (  12.8281697  23.0907054  33.3532412  )
       499           Si  tau( 499) = (  12.8281697  23.0907054   2.5656339  )
       500           Si  tau( 500) = (  12.8281697  23.0907054  12.8281697  )
       501           Si  tau( 501) = (  12.8281697  33.3532412  23.0907054  )
       502           Si  tau( 502) = (  12.8281697  33.3532412  33.3532412  )
       503           Si  tau( 503) = (  12.8281697  33.3532412   2.5656339  )
       504           Si  tau( 504) = (  12.8281697  33.3532412  12.8281697  )
       505           Si  tau( 505) = (  12.8281697   2.5656339  23.0907054  )
       506           Si  tau( 506) = (  12.8281697   2.5656339  33.3532412  )
       507           Si  tau( 507) = (  12.8281697   2.5656339   2.5656339  )
       508           Si  tau( 508) = (  12.8281697   2.5656339  12.8281697  )
       509           Si  tau( 509) = (  12.8281697  12.8281697  23.0907054  )
       510           Si  tau( 510) = (  12.8281697  12.8281697  33.3532412  )
       511           Si  tau( 511) = (  12.8281697  12.8281697   2.5656339  )
       512           Si  tau( 512) = (  12.8281697  12.8281697  12.8281697  )

     number of k points=     1  Gaussian smearing, width (Ry)=  0.0010
                       cart. coord. in units 2pi/alat
        k(    1) = (   0.0000000   0.0000000   0.0000000), wk =   2.0000000

     Dense  grid:  8583411 G-vectors     FFT dimensions: ( 324, 324, 324)

     Smooth grid:  1182051 G-vectors     FFT dimensions: ( 180, 180, 180)

     Estimated max dynamical RAM per process >       3.28 GB

     Estimated total dynamical RAM >     118.15 GB

     Initial potential from superposition of free atoms

     total cpu time spent up to now is       22.2 secs

     Self-consistent Calculation

     iteration #  1     ecut=    40.00 Ry     beta= 0.70

     Threshold (ethr) on eigenvalues was too large:
     Diagonalizing with lowered threshold


     total cpu time spent up to now is       57.2 secs

     total energy              =   -5126.82650614 Ry
     estimated scf accuracy    <      14.53670151 Ry
 
     Band energy sum           =      64.99726154 Ry

     iteration #  2     ecut=    40.00 Ry     beta= 0.70

     total cpu time spent up to now is       79.0 secs

     total energy              =   -5127.96197401 Ry
     estimated scf accuracy    <       0.54906202 Ry
 
     Band energy sum           =     124.50824243 Ry

     iteration #  3     ecut=    40.00 Ry     beta= 0.70

     total cpu time spent up to now is      125.2 secs

     total energy              =   -5128.12958189 Ry
     estimated scf accuracy    <       0.03062785 Ry
 
     Band energy sum           =     130.73312729 Ry

     iteration #  4     ecut=    40.00 Ry     beta= 0.70

     total cpu time spent up to now is      168.2 secs

     total energy              =   -5128.09304016 Ry
     estimated scf accuracy    <       0.54282628 Ry
 
     Band energy sum           =     126.98608630 Ry

     iteration #  5     ecut=    40.00 Ry     beta= 0.70

     total cpu time spent up to now is      198.4 secs

     total energy              =   -5128.14635341 Ry
     estimated scf accuracy    <       0.02682873 Ry
 
     Band energy sum           =     127.50204491 Ry

     iteration #  6     ecut=    40.00 Ry     beta= 0.70

     total cpu time spent up to now is      218.3 secs

     total energy              =   -5128.14914638 Ry
     estimated scf accuracy    <       0.00375657 Ry
 
     Band energy sum           =     127.79072617 Ry

     iteration #  7     ecut=    40.00 Ry     beta= 0.70

     total cpu time spent up to now is      237.8 secs

     total energy              =   -5128.14950324 Ry
     estimated scf accuracy    <       0.00084148 Ry
 
     Band energy sum           =     128.02544935 Ry

     iteration #  8     ecut=    40.00 Ry     beta= 0.70

     total cpu time spent up to now is      257.7 secs

     total energy              =   -5128.14958328 Ry
     estimated scf accuracy    <       0.00013005 Ry
 
     Band energy sum           =     128.20592689 Ry

     iteration #  9     ecut=    40.00 Ry     beta= 0.70

     total cpu time spent up to now is      279.5 secs

     total energy              =   -5128.14960462 Ry
     estimated scf accuracy    <       0.00001918 Ry
 
     Band energy sum           =     128.30357548 Ry

     iteration # 10     ecut=    40.00 Ry     beta= 0.70

     total cpu time spent up to now is      300.9 secs

     total energy              =   -5128.14960883 Ry
     estimated scf accuracy    <       0.00000358 Ry
 
     Band energy sum           =     128.33702335 Ry

     iteration # 11     ecut=    40.00 Ry     beta= 0.70

     total cpu time spent up to now is      322.6 secs

     total energy              =   -5128.14960948 Ry
     estimated scf accuracy    <       0.00000217 Ry
 
     Band energy sum           =     128.31945345 Ry

     iteration # 12     ecut=    40.00 Ry     beta= 0.70

     total cpu time spent up to now is      342.0 secs

     total energy              =   -5128.14960972 Ry
     estimated scf accuracy    <       0.00000120 Ry
 
     Band energy sum           =     128.32634198 Ry

     iteration # 13     ecut=    40.00 Ry     beta= 0.70

     total cpu time spent up to now is      360.2 secs

     total energy              =   -5128.14960986 Ry
     estimated scf accuracy    <       0.00000035 Ry
 
     Band energy sum           =     128.32673760 Ry

     iteration # 14     ecut=    40.00 Ry     beta= 0.70

     total cpu time spent up to now is      378.1 secs

     total energy              =   -5128.14960990 Ry
     estimated scf accuracy    <       0.00000006 Ry
 
     Band energy sum           =     128.32718899 Ry

     iteration # 15     ecut=    40.00 Ry     beta= 0.70

     total cpu time spent up to now is      396.2 secs

     total energy              =   -5128.14960991 Ry
     estimated scf accuracy    <       0.00000007 Ry
 
     Band energy sum           =     128.32665616 Ry

     iteration # 16     ecut=    40.00 Ry     beta= 0.70

     total cpu time spent up to now is      409.1 secs

     total energy              =   -5128.14960992 Ry
     estimated scf accuracy    <       0.00000001 Ry
 
     Band energy sum           =     128.32670981 Ry

     iteration # 17     ecut=    40.00 Ry     beta= 0.70

     total cpu time spent up to now is      420.6 secs

     total energy              =   -5128.14960992 Ry
     estimated scf accuracy    <          9.0E-10 Ry
 
     Band energy sum           =     128.32673881 Ry

     iteration # 18     ecut=    40.00 Ry     beta= 0.70

     total cpu time spent up to now is      432.4 secs

     total energy              =   -5128.14960992 Ry
     estimated scf accuracy    <          3.6E-10 Ry
 
     Band energy sum           =     128.32670899 Ry

     iteration # 19     ecut=    40.00 Ry     beta= 0.70

     total cpu time spent up to now is      444.1 secs

     total energy              =   -5128.14960992 Ry
     estimated scf accuracy    <          1.8E-10 Ry
 
     Band energy sum           =     128.32668170 Ry

     iteration # 20     ecut=    40.00 Ry     beta= 0.70

     total cpu time spent up to now is      455.8 secs

     End of self-consistent calculation

          k = 0.0000 0.0000 0.0000 (147954 PWs)   bands (ev):

   -18.3118 -18.3118 -18.3118 -18.2816 -18.2816  -5.9524  -5.7031  -5.6750
    -5.6750  -5.6750  -5.6749  -5.6749  -5.4554  -5.4078  -5.4078  -5.4078
    -5.4075  -5.4075  -5.4075  -5.4075  -5.4075  -5.4075  -5.4075  -5.4075
    -5.1772  -5.1482  -5.1482  -5.1482  -5.1480  -5.1479  -5.1479  -5.1479
    -4.8936  -4.8663  -4.8663  -4.8663  -4.8661  -4.8661  -4.7049  -4.6194
    -4.6194  -4.6194  -4.6184  -4.6184  -4.6184  -4.6184  -4.6184  -4.6184
    -4.6184  -4.6184  -4.6183  -4.6183  -4.6183  -4.6183  -4.6183  -4.6183
    -4.6183  -4.6183  -4.6183  -4.6182  -4.6182  -4.6182  -4.4473  -4.3916
    -4.3916  -4.3916  -4.3906  -4.3906  -4.3906  -4.3906  -4.3906  -4.3906
    -4.3906  -4.3906  -4.3906  -4.3905  -4.3905  -4.3905  -4.3905  -4.3905
    -4.3905  -4.3905  -4.3905  -4.3905  -4.3905  -4.3905  -3.9577  -3.9036
    -3.9036  -3.9036  -3.9030  -3.9030  -3.9030  -3.9030  -3.9030  -3.9030
    -3.9030  -3.9030  -3.8270  -3.7725  -3.7725  -3.7725  -3.7717  -3.7717
    -3.7717  -3.7717  -3.7717  -3.7717  -3.7717  -3.7717  -3.7717  -3.7717
    -3.7717  -3.7717  -3.7717  -3.7717  -3.7717  -3.7717  -3.7717  -3.7716
    -3.7716  -3.7716  -3.6233  -3.6112  -3.6112  -3.6112  -3.5672  -3.5545
    -3.5545  -3.5545  -3.5541  -3.5541  -3.4198  -3.3561  -3.3561  -3.3561
    -3.3547  -3.3547  -3.3547  -3.3547  -3.3547  -3.3547  -3.3547  -3.3547
    -3.3547  -3.3547  -3.3546  -3.3546  -3.3546  -3.3546  -3.3546  -3.3546
    -3.3546  -3.3546  -3.3546  -3.3546  -3.2676  -3.2293  -3.2293  -3.2293
    -3.2282  -3.2282  -3.2282  -3.2282  -3.2282  -3.2282  -3.2282  -3.2282
    -3.2282  -3.2282  -3.2282  -3.2282  -3.2281  -3.2281  -3.2281  -3.2281
    -3.2281  -3.2281  -3.2281  -3.2281  -3.1096  -3.0742  -3.0742  -3.0742
    -3.0737  -3.0737  -3.0737  -3.0737  -3.0737  -3.0736  -3.0736  -3.0736
    -3.0736  -3.0736  -3.0736  -3.0736  -3.0736  -3.0736  -3.0736  -3.0736
    -3.0736  -3.0736  -3.0736  -3.0736  -2.8640  -2.8294  -2.8294  -2.8294
    -2.8286  -2.8286  -2.8286  -2.8284  -2.8284  -2.8284  -2.8284  -2.8284
    -2.8284  -2.8284  -2.8284  -2.8284  -2.8284  -2.8284  -2.8284  -2.8284
    -2.8284  -2.8284  -2.8284  -2.8284  -2.2393  -2.2149  -2.2149  -2.2149
    -2.2147  -2.2147  -2.2147  -2.2146  -2.2146  -2.2146  -2.2145  -2.2145
    -1.8283  -1.8062  -1.8062  -1.8062  -1.8058  -1.8058  -1.7666  -1.7277
    -1.7277  -1.7277  -1.7265  -1.7265  -1.7265  -1.7265  -1.7265  -1.7265
    -1.7264  -1.7264  -1.7264  -1.7264  -1.7264  -1.7264  -1.7264  -1.7264
    -1.7264  -1.7264  -1.7264  -1.7264  -1.7264  -1.7264  -1.6529  -1.6393
    -1.6393  -1.6393  -1.6390  -1.6390  -1.6390  -1.6389  -1.6389  -1.6389
    -1.6389  -1.6389  -1.2379  -1.2183  -1.2183  -1.2183  -1.2177  -1.2177
    -1.2177  -1.2176  -1.2176  -1.2176  -1.2176  -1.2176  -0.9823  -0.9786
    -0.9786  -0.9786  -0.8216  -0.7900  -0.7900  -0.7900  -0.7875  -0.7875
    -0.7875  -0.7875  -0.7875  -0.7874  -0.7874  -0.7874  -0.7874  -0.7874
    -0.7874  -0.7874  -0.7874  -0.7874  -0.7874  -0.7874  -0.7874  -0.7873
    -0.7873  -0.7873  -0.6022  -0.5614  -0.5614  -0.5614  -0.5605  -0.5605
    -0.5605  -0.5604  -0.5604  -0.5604  -0.5604  -0.5604  -0.5603  -0.5603
    -0.5603  -0.5603  -0.5603  -0.5603  -0.5603  -0.5603  -0.5603  -0.5602
    -0.5602  -0.5602  -0.4238  -0.3853  -0.3853  -0.3853  -0.3818  -0.3817
    -0.3817  -0.3817  -0.3816  -0.3816  -0.3816  -0.3816  -0.3816  -0.3816
    -0.3816  -0.3816  -0.3816  -0.3816  -0.3816  -0.3816  -0.3816  -0.3814
    -0.3814  -0.3814  -0.3804  -0.3795  -0.3795  -0.3795  -0.3790  -0.3790
    -0.3790  -0.3789  -0.3789  -0.3789  -0.3789  -0.3789  -0.3789  -0.3789
    -0.3789  -0.3789  -0.3788  -0.3788  -0.3788  -0.3788  -0.3788  -0.3786
    -0.3786  -0.3786   0.0115   0.0435   0.0435   0.0435   0.0440   0.0440
     0.0440   0.0441   0.0441   0.0441   0.0441   0.0441   0.0441   0.0441
     0.0441   0.0441   0.0441   0.0441   0.0441   0.0441   0.0441   0.0443
     0.0443   0.0443   0.2541   0.2616   0.2616   0.2616   0.2617   0.2617
     0.5091   0.5232   0.5232   0.5232   0.5236   0.5236   0.5236   0.5238
     0.5238   0.5241   0.5241   0.5241   0.6933   0.7110   0.7110   0.7110
     0.7127   0.7129   0.7129   0.7129   0.7129   0.7129   0.7129   0.7129
     0.7129   0.7129   0.7129   0.7129   0.7129   0.7129   0.7129   0.7130
     0.7130   0.7137   0.7137   0.7137   1.6829   1.6829   1.6829   1.6833
     1.6844   1.6844   1.6844   1.6844   1.6844   1.6844   1.6845   1.6847
     1.6847   1.7116   1.7116   1.7116   1.7122   1.7122   1.7122   1.7122
     1.7122   1.7123   1.7123   1.7123   1.7123   1.7123   1.7123   1.7123
     1.7123   1.7123   1.7123   1.7124   1.7124   1.7136   1.7136   1.7136
     1.7565   1.7565   1.7565   1.7583   1.7591   1.7591   1.7591   1.7591
     1.7591   1.7591   1.7592   1.7592   1.7592   1.7592   1.7592   1.7592
     1.7592   1.7592   1.7593   1.7594   1.7594   1.7594   1.7597   1.7597
     2.0631   2.0687   2.0687   2.0687   2.0691   2.0697   2.0697   2.0697
     2.1363   2.1363   2.1363   2.1374   2.1374   2.1374   2.1375   2.1375
     2.1375   2.1375   2.1379   2.1379   2.2349   2.2352   2.2352   2.2352
     2.2363   2.2363   2.2363   2.2366   2.2366   2.2367   2.2367   2.2367
     2.4507   2.4560   2.4560   2.4560   2.4578   2.4578   2.4578   2.4578
     2.4578   2.4578   2.4579   2.4579   2.4579   2.4579   2.4579   2.4579
     2.4579   2.4579   2.4579   2.4585   2.4585   2.4585   2.4586   2.4586
     2.4758   2.4824   2.4824   2.4828   2.4828   2.4828   2.5371   2.5418
     2.5418   2.5418   2.5433   2.5433   2.5433   2.5435   2.5435   2.5435
     2.5435   2.5435   2.5435   2.5435   2.5435   2.5435   2.5435   2.5435
     2.5435   2.5440   2.5440   2.5442   2.5442   2.5442   2.5798   2.5798
     2.5798   2.5811   2.5811   2.5811   2.5813   2.5817   2.5817   2.5817
     2.5817   2.5817   2.5817   2.5817   2.5817   2.5817   2.5817   2.5817
     2.5817   2.5820   2.5820   2.5820   2.5823   2.5823   2.6326   2.6326
     2.6326   2.6329   2.6340   2.6340   2.6340   2.6344   2.6344   2.6344
     2.6344   2.6344   2.6344   2.6345   2.6345   2.6345   2.6345   2.6345
     2.6346   2.6349   2.6349   2.6352   2.6352   2.6352   3.1619   3.1619
     3.1619   3.1619   3.1619   3.1619   3.2434   3.2434   3.2434   3.2442
     3.2442   3.2442   3.2446   3.2446   3.2446   3.2446   3.2447   3.2447
     3.2447   3.2447   3.2447   3.2448   3.2448   3.2448   3.2448   3.2453
     3.2453   3.2453   3.2456   3.2456   3.2813   3.2831   3.2831   3.2831
     3.2844   3.2844   3.2844   3.2846   3.2846   3.2846   3.2846   3.2846
     3.2846   3.2846   3.2846   3.2846   3.2846   3.2846   3.2847   3.2849
     3.2849   3.2861   3.2861   3.2861   3.3052   3.3146   3.3146   3.3146
     3.3148   3.3148   3.3148   3.3148   3.3148   3.3163   3.3163   3.3163
     3.4070   3.4070   3.4070   3.4071   3.4071   3.4071   3.4076   3.4076
     3.4076   3.4080   3.4080   3.4080   3.4184   3.4184   3.4184   3.4187
     3.4189   3.4189   3.4189   3.4193   3.4193   3.4193   3.4193   3.4194
     3.4194   3.4194   3.4194   3.4194   3.4194   3.4194   3.4194   3.4199
     3.4199   3.4199   3.4204   3.4204   3.5313   3.5370   3.5370   3.5370
     3.5374   3.5374   3.5374   3.5378   3.5378   3.5378   3.5378   3.5378
     3.5378   3.5378   3.5379   3.5379   3.5379   3.5379   3.5379   3.5383
     3.5383   3.5395   3.5395   3.5395   3.5894   3.5894   3.5894   3.5897
     3.5897   3.5897   3.5899   3.5899   3.5899   3.5899   3.5901   3.5901
     3.8092   3.8092   3.8092   3.8095   3.8095   3.8095   3.8100   3.8100
     3.8100   3.8100   3.8101   3.8101   3.8101   3.8101   3.8101   3.8101
     3.8101   3.8101   3.8101   3.8104   3.8104   3.8108   3.8108   3.8108
     3.8489   3.8489   3.8489   3.8489   3.8489   3.8489   3.8493   3.8494
     3.8494   3.8494   3.8494   3.8494   3.8494   3.8495   3.8495   3.8495
     3.8495   3.8495   3.8495   3.8503   3.8503   3.8503   3.8505   3.8505
     4.1233   4.1233   4.1233   4.1235   4.1235   4.1235   4.1237   4.1237
     4.1237   4.1247   4.1247   4.1248   4.1588   4.1659   4.1659   4.1659
     4.1661   4.1661   4.1661   4.1662   4.1663   4.1663   4.1663   4.1663
     4.1663   4.1664   4.1664   4.1664   4.1664   4.1664   4.1664   4.1669
     4.1669   4.1686   4.1686   4.1686   4.3734   4.3739   4.3739   4.3739
     4.3743   4.3743   4.3743   4.3744   4.3744   4.3758   4.3758   4.3758
     4.4280   4.4280   4.4280   4.4281   4.4281   4.4281   4.4286   4.4286
     4.4286   4.4286   4.4286   4.4286   4.4286   4.4286   4.4286   4.4286
     4.4286   4.4286   4.4287   4.4289   4.4289   4.4310   4.4310   4.4310
     4.5823   4.5837   4.5837   4.5837   4.5838   4.5838   4.5838   4.5839
     4.5839   4.5839   4.5840   4.5840   4.5840   4.5840   4.5840   4.5841
     4.5841   4.5841   4.5841   4.5848   4.5848   4.5864   4.5864   4.5864
     4.6579   4.6628   4.6628   4.6639   4.6639   4.6639   4.6889   4.6889
     4.6889   4.6892   4.6892   4.6892   4.6892   4.6896   4.6896   4.6901
     4.6901   4.6901   4.7513   4.7513   4.7513   4.7521   4.7521   4.7521
     4.7521   4.7521   4.7521   4.7521   4.7521   4.7521   4.7521   4.7521
     4.7521   4.7521   4.7521   4.7521   4.7521   4.7527   4.7527   4.7542
     4.7542   4.7542   4.8196   4.8196   4.8196   4.8200   4.8200   4.8207
     4.8207   4.8207   5.2067   5.2067   5.2067   5.2068   5.2068   5.2068
     5.2069   5.2069   5.2069   5.2091   5.2091   5.2091   5.2565   5.2565
     5.2565   5.2566   5.2566   5.2566   5.2567   5.2567   5.2568   5.2568
     5.2568   5.2569   5.2569   5.2598   5.2598   5.2598   5.7252   5.7252
     5.7252   5.7252   5.7252   5.7252   5.7253   5.7254   5.7254   5.7280
     5.7280   5.7280   6.0175   6.0175   6.0175   6.5317   6.5357   6.5357
     6.5362   6.5362   6.5362   6.6221   6.6262   6.6262   6.6262   6.6263
     6.6263   7.0584   7.0618   7.0618   7.0627   7.0627   7.0627   7.1172
     7.1229   7.1229   7.1229   7.1231   7.1231   7.1231   7.1257   7.1257
     7.1257   7.1261   7.1261   7.4214   7.4379   7.4379   7.4379   7.4407
     7.4442   7.4442   7.4442   7.4444   7.4445   7.4445   7.4445   7.4445
     7.4445   7.4446   7.4446   7.4446   7.4446   7.4446   7.4446   7.4447
     7.4447   7.4447   7.4492   7.4492   7.4495   7.4495   7.4495   7.4551
     7.4582   7.4582   7.4582   7.4599   7.4599   7.8673   7.8824   7.8824
     7.8824   7.8828   7.8828   7.8828   7.8829   7.8829   7.8829   7.8829
     7.8829   7.8829   7.8830   7.8830   7.8830   7.8835   7.8835   7.8835
     7.8854   7.8854   7.8870   7.8870   7.8870   7.8938   7.8996   7.8996
     7.8996   7.9000   7.9000   7.9000   7.9001   7.9001   7.9001   7.9001
     7.9001   7.9001   7.9001   7.9001   7.9001   7.9006   7.9006   7.9006
     7.9063   7.9063   7.9068   7.9068   7.9068   7.9289   7.9369   7.9374
     7.9374   7.9374   7.9397   7.9397   7.9397   7.9661   7.9673   7.9673
     7.9690   7.9690   7.9690   8.1630   8.1791   8.1796   8.1796   8.1796
     8.1797   8.1797   8.1797   8.1798   8.1798   8.1798   8.1798   8.1798
     8.1799   8.1799   8.1799   8.1804   8.1804   8.1804   8.1836   8.1836
     8.1853   8.1853   8.1853   8.2636   8.2846   8.2846   8.2846   8.2848
     8.2848   8.2848   8.2849   8.2849   8.2849   8.2849   8.2849   8.2849
     8.2849   8.2849   8.2849   8.2853   8.2853   8.2853   8.2874   8.2874
     8.2908   8.2908   8.2908   8.3765   8.3829   8.3829   8.3829   8.3833
     8.3833   8.3833   8.3850   8.3850   8.3850   8.3856   8.3856   8.3907
     8.3937   8.3938   8.3938   8.3940   8.3940   8.3940   8.3941   8.3941
     8.3941   8.3942   8.3942   8.3950   8.3950   8.3950   8.3965   8.3966
     8.4027   8.4027   8.4028

     the Fermi energy is     6.3387 ev

!    total energy              =   -5128.14960992 Ry
     estimated scf accuracy    <          5.8E-11 Ry
     smearing contrib. (-TS)   =      -0.00000000 Ry
     internal energy E=F+TS    =   -5128.14960992 Ry

     The total energy is F=E-TS. E is the sum of the following terms:
     one-electron contribution =    1072.71929030 Ry
     hartree contribution      =     404.47265802 Ry
     xc contribution           =   -2256.46259251 Ry
     ewald contribution        =   -4348.87896572 Ry
 
     Band energy sum           =     128.32668707 Ry

     convergence has been achieved in  20 iterations
 
     evp_work_count :  1608.146570
 
     init_run     :    144.70s CPU     21.94s WALL (       1 calls)
     electrons    :   3729.61s CPU    433.58s WALL (       1 calls)

     Called by init_run:
     potinit      :      5.83s CPU      0.95s WALL (       1 calls)
     hinit0       :      3.51s CPU      0.40s WALL (       1 calls)

     Called by electrons:
     c_bands      :   2861.61s CPU    318.16s WALL (      21 calls)
     sum_band     :    543.91s CPU     62.99s WALL (      21 calls)
     v_of_rho     :      9.03s CPU      1.01s WALL (      21 calls)
     mix_rho      :     10.73s CPU      1.19s WALL (      21 calls)

     Called by c_bands:

     Called by sum_band:

     Called by *egterg:

     Called by h_psi:

     General routines
     fft          :     36.56s CPU      4.12s WALL (     125 calls)
     ffts         :      0.68s CPU      0.07s WALL (      21 calls)
     interpolate  :      7.15s CPU      0.79s WALL (      21 calls)
 
     Parallel routines
     fft_scatt_xy :      1.43s CPU      0.15s WALL (     146 calls)
     fft_scatt_yz :     32.01s CPU      3.59s WALL (     146 calls)
 
     PWSCF        :      1h 4m CPU   7m39.49s WALL

 
   This run was terminated on:  14:19:47  10Mar2020            

=------------------------------------------------------------------------------=
   JOB DONE.
=------------------------------------------------------------------------------=
========================================================================================================================================================
                                                                         #         Total          %   Parent %        Median           Min           Max
--------------------------------------------------------------------------------------------------------------------------------------------------------
sirius                                                                   1      459.54 s     100.00     100.00      459.54 s      459.54 s      459.54 s
 |- sirius::initialize                                                   1      47.31 ms       0.01       0.01      47.31 ms      47.31 ms      47.31 ms
 |- qe|setup                                                             1      92.87 ms       0.02       0.02      92.87 ms      92.87 ms      92.87 ms
 |- qe|init_run                                                          1       21.94 s       4.77       4.77       21.94 s       21.94 s       21.94 s
 | |- qe|init_run|setup_sirius                                           1        8.11 s       1.76      36.95        8.11 s        8.11 s        8.11 s
 | | |- sirius::Simulation_context::initialize                           1        7.61 s       1.66      93.92        7.61 s        7.61 s        7.61 s
 | | | |- sirius::Simulation_context::init_comm                          1     749.08 us       0.00       0.01     749.08 us     749.08 us     749.08 us
 | | | |- sirius::Unit_cell::initialize                                  1     272.98 ms       0.06       3.59     272.98 ms     272.98 ms     272.98 ms
 | | | | |- sirius::Atom_type::init                                      2      43.88 us       0.00       0.02      21.94 us       4.63 us      39.25 us
 | | | | |- sirius::Unit_cell::update                                    1     272.42 ms       0.06      99.79     272.42 ms     272.42 ms     272.42 ms
 | | | | | |- sirius::Unit_cell::find_nearest_neighbours                 1     260.71 ms       0.06      95.70     260.71 ms     260.71 ms     260.71 ms
 | | | | | |- sirius::Unit_cell::get_symmetry                            1      11.68 ms       0.00       4.29      11.68 ms      11.68 ms      11.68 ms
 | | | | | | |- sirius::Unit_cell_symmetry                               1       5.88 ms       0.00      50.36       5.88 ms       5.88 ms       5.88 ms
 | | | | | | | |- sirius::Unit_cell_symmetry|spg                         1     503.00 ns       0.00       0.01     503.00 ns     503.00 ns     503.00 ns
 | | | | | | | |- sirius::Unit_cell_symmetry|equiv                       1       5.84 ms       0.00      99.17       5.84 ms       5.84 ms       5.84 ms
 | | | | | | | |- sirius::Unit_cell_symmetry|mag                         1      21.84 us       0.00       0.37      21.84 us      21.84 us      21.84 us
 | | | |
 | | | |- sirius::Simulation_context::update                             1        7.32 s       1.59      96.14        7.32 s        7.32 s        7.32 s
 | | | | |- sirius::Unit_cell::update                                    1     286.20 ms       0.06       3.91     286.20 ms     286.20 ms     286.20 ms
 | | | | | |- sirius::Unit_cell::find_nearest_neighbours                 1     275.09 ms       0.06      96.12     275.09 ms     275.09 ms     275.09 ms
 | | | | | |- sirius::Unit_cell::get_symmetry                            1      11.08 ms       0.00       3.87      11.08 ms      11.08 ms      11.08 ms
 | | | | | | |- sirius::Unit_cell_symmetry                               1       5.86 ms       0.00      52.89       5.86 ms       5.86 ms       5.86 ms
 | | | | | | | |- sirius::Unit_cell_symmetry|spg                         1     157.00 ns       0.00       0.00     157.00 ns     157.00 ns     157.00 ns
 | | | | | | | |- sirius::Unit_cell_symmetry|equiv                       1       5.83 ms       0.00      99.51       5.83 ms       5.83 ms       5.83 ms
 | | | | | | | |- sirius::Unit_cell_symmetry|mag                         1      19.99 us       0.00       0.34      19.99 us      19.99 us      19.99 us
 | | | | |
 | | | | |- sirius::Radial_integrals|rho_core_pseudo                     2       1.63 us       0.00       0.00     817.00 ns     126.00 ns       1.51 us
 | | | | |- sirius::Radial_integrals|rho_pseudo                          1       5.86 ms       0.00       0.08       5.86 ms       5.86 ms       5.86 ms
 | | | | |- sirius::Radial_integrals|vloc                                2       2.24 us       0.00       0.00       1.12 us     484.00 ns       1.76 us
 | | | | |- sirius::Radial_integrals|atomic_wfs                          4     122.73 ms       0.03       1.68      26.11 ms       4.29 us      70.51 ms
 | | | | |- sddk::Gvec::init                                             2        3.26 s       0.71      44.56        1.63 s     399.71 ms        2.86 s
 | | | | | |- sddk::Gvec::find_gvec_shells                               2        2.74 s       0.60      84.00        1.37 s     325.50 ms        2.41 s
 | | | | |
 | | | | |- sddk::Gvec_shells                                            1     321.35 ms       0.07       4.39     321.35 ms     321.35 ms     321.35 ms
 | | | | |- sirius::Simulation_context::init_atoms_to_grid_idx           1       9.17 ms       0.00       0.13       9.17 ms       9.17 ms       9.17 ms
 | | | | |- sirius::Augmentation_operator::generate_pw_coeffs            2        2.58 s       0.56      35.26        1.29 s        1.29 s        1.29 s
 | | | | | |- sirius::Augmentation_operator::generate_pw_coeffs|1        2       8.72 ms       0.00       0.34       4.36 ms       3.86 ms       4.86 ms
 | | | | | |- sirius::Augmentation_operator::generate_pw_coeffs|2        2        2.44 s       0.53      94.47        1.22 s        1.22 s        1.22 s
 | | |
 | | |- sirius::K_point_set::add_kpoints                                 1      24.14 us       0.00       0.00      24.14 us      24.14 us      24.14 us
 | | | |- sirius::K_point_set::add_kpoint                                1      21.12 us       0.00      87.48      21.12 us      21.12 us      21.12 us
 | | | | |- sirius::K_point::K_point                                     1       4.67 us       0.00      22.13       4.67 us       4.67 us       4.67 us
 | | |
 | | |- sirius::Smooth_periodic_function                                 2      13.63 ms       0.00       0.17       6.82 ms       6.73 ms       6.90 ms
 | | |- sirius::Potential                                                1      41.72 ms       0.01       0.51      41.72 ms      41.72 ms      41.72 ms
 | | | |- sirius::Smooth_periodic_function                               6      40.51 ms       0.01      97.10       6.74 ms       6.69 ms       6.85 ms
 | | | |- sirius::Potential::update                                      1     703.84 us       0.00       1.69     703.84 us     703.84 us     703.84 us
 | | |
 | | |- sirius::Density                                                  1       8.99 ms       0.00       0.11       8.99 ms       8.99 ms       8.99 ms
 | | | |- sirius::Smooth_periodic_function                               2       7.05 ms       0.00      78.43       3.53 ms     312.26 us       6.74 ms
 | | | |- sirius::Density::update                                        1     364.24 us       0.00       4.05     364.24 us     364.24 us     364.24 us
 | |
 | |- qe|init_vloc                                                       1     109.48 ms       0.02       0.50     109.48 ms     109.48 ms     109.48 ms
 | |- qe|init_run|hinit0|init_us_1                                       1     530.00 ns       0.00       0.00     530.00 ns     530.00 ns     530.00 ns
 | |- qe|init_run|hinit0|init_at_1                                       1       8.23 ms       0.00       0.04       8.23 ms       8.23 ms       8.23 ms
 | |- qe|setlocal                                                        1      57.99 ms       0.01       0.26      57.99 ms      57.99 ms      57.99 ms
 | |- qe|set_rhoc                                                        1      58.86 ms       0.01       0.27      58.86 ms      58.86 ms      58.86 ms
 | |- qe|potinit                                                         1     949.68 ms       0.21       4.33     949.68 ms     949.68 ms     949.68 ms
 | | |- qe|atomic_rho_g                                                  1       5.00 ms       0.00       0.53       5.00 ms       5.00 ms       5.00 ms
 | | | |- sirius_api::sirius_get_pw_coeffs_real                          2       2.49 ms       0.00      49.79       1.24 ms       1.22 ms       1.27 ms
 | | |
 | | |- qe|paw_becsum                                                    1     436.00 ns       0.00       0.00     436.00 ns     436.00 ns     436.00 ns
 | | |- sirius_api::sirius_set_pw_coeffs                                 1     775.41 ms       0.17      81.65     775.41 ms     775.41 ms     775.41 ms
 | | | |- sirius::Smooth_periodic_function::fft_transform                1      19.91 ms       0.00       2.57      19.91 ms      19.91 ms      19.91 ms
 | | |
 | | |- qe|paw_potential                                                 1       1.33 us       0.00       0.00       1.33 us       1.33 us       1.33 us
 | | |- qe|set_vrs                                                       1      42.83 ms       0.01       4.51      42.83 ms      42.83 ms      42.83 ms
 | |
 | |- qe|newd                                                            1        1.20 s       0.26       5.48        1.20 s        1.20 s        1.20 s
 | | |- sirius::Potential::generate_D_operator_matrix                    1        1.20 s       0.26      99.79        1.20 s        1.20 s        1.20 s
 | |
 | |- sirius::K_point_set::initialize                                    1     113.31 ms       0.02       0.52     113.31 ms     113.31 ms     113.31 ms
 | | |- sirius::K_point::initialize                                      1     113.30 ms       0.02      99.99     113.30 ms     113.30 ms     113.30 ms
 | | | |- sirius::K_point::generate_gkvec                                1      12.47 ms       0.00      11.01      12.47 ms      12.47 ms      12.47 ms
 | | | | |- sddk::Gvec::init                                             1      10.22 ms       0.00      81.97      10.22 ms      10.22 ms      10.22 ms
 | | | |
 | | | |- sddk::matrix_storage::matrix_storage                           1      17.11 us       0.00       0.02      17.11 us      17.11 us      17.11 us
 | | | |- sirius::K_point::update                                        1     100.46 ms       0.02      88.67     100.46 ms     100.46 ms     100.46 ms
 | | | | |- sirius::Beta_projectors                                      1     100.07 ms       0.02      99.61     100.07 ms     100.07 ms     100.07 ms
 | | | | | |- sirius::Beta_projectors::generate_pw_coefs_t               1     769.55 us       0.00       0.77     769.55 us     769.55 us     769.55 us
 | | | | | |- sirius::Beta_projectors_base::generate                     2      99.27 ms       0.02      99.20      49.63 ms      49.44 ms      49.83 ms
 | |
 | |- sirius::Hamiltonian0                                               1       5.70 ms       0.00       0.03       5.70 ms       5.70 ms       5.70 ms
 | | |- sirius::Local_operator                                           1       4.66 ms       0.00      81.69       4.66 ms       4.66 ms       4.66 ms
 | | | |- sirius::Smooth_periodic_function                               1     328.60 us       0.00       7.06     328.60 us     328.60 us     328.60 us
 | | | |- sirius::Smooth_periodic_function::fft_transform                1       4.08 ms       0.00      87.56       4.08 ms       4.08 ms       4.08 ms
 | | |
 | | |- sirius::Non_local_operator                                       2      19.72 us       0.00       0.35       9.86 us       5.25 us      14.48 us
 | | |- sirius::D_operator::initialize                                   1     341.78 us       0.00       6.00     341.78 us     341.78 us     341.78 us
 | | |- sirius::Q_operator::initialize                                   1     185.76 us       0.00       3.26     185.76 us     185.76 us     185.76 us
 | |
 | |- sirius::Band::initialize_subspace                                  1        8.51 s       1.85      38.78        8.51 s        8.51 s        8.51 s
 | | |- sirius::Hamiltonian_k                                            1      24.03 us       0.00       0.00      24.03 us      24.03 us      24.03 us
 | | | |- sirius::Local_operator::prepare_k                              1      22.75 us       0.00      94.66      22.75 us      22.75 us      22.75 us
 | | |
 | | |- sirius::Band::initialize_subspace|kp                             1        8.51 s       1.85     100.00        8.51 s        8.51 s        8.51 s
 | | | |- sddk::matrix_storage::matrix_storage                           4       7.83 us       0.00       0.00       2.03 us     677.00 ns       3.08 us
 | | | |- sirius::Band::initialize_subspace|kp|wf                        1      76.25 ms       0.02       0.90      76.25 ms      76.25 ms      76.25 ms
 | | | | |- sirius::K_point::generate_atomic_wave_functions              1      59.58 ms       0.01      78.15      59.58 ms      59.58 ms      59.58 ms
 | | | |
 | | | |- sirius::Hamiltonian_k::apply_h_s                               1        6.86 s       1.49      80.66        6.86 s        6.86 s        6.86 s
 | | | | |- sirius::Local_operator::apply_h                              1        2.37 s       0.52      34.49        2.37 s        2.37 s        2.37 s
 | | | | | |- sddk::matrix_storage::remap_forward                        1       7.34 us       0.00       0.00       7.34 us       7.34 us       7.34 us
 | | | | | | |- sddk::matrix_storage::set_num_extra                      1       5.39 us       0.00      73.43       5.39 us       5.39 us       5.39 us
 | | | | | |
 | | | | | |- sddk::matrix_storage::set_num_extra                        1     520.00 ns       0.00       0.00     520.00 ns     520.00 ns     520.00 ns
 | | | | | |- sddk::matrix_storage::remap_backward                       1      14.55 us       0.00       0.00      14.55 us      14.55 us      14.55 us
 | | | | |
 | | | | |- sirius::Beta_projectors_base::inner                          2        1.73 s       0.38      25.24     866.09 ms     827.35 ms     904.84 ms
 | | | | | |- sirius::Beta_projectors_base::inner|comm                   2     399.11 ms       0.09      23.04     199.55 ms     153.98 ms     245.13 ms
 | | | | |
 | | | | |- sirius::Non_local_operator::apply                            4        2.75 s       0.60      40.03     684.78 ms     682.72 ms     694.58 ms
 | | | |
 | | | |- sirius::Band::set_subspace_mtrx                                2     705.60 ms       0.15       8.29     352.80 ms     320.65 ms     384.95 ms
 | | | | |- sddk::inner                                                  2     705.42 ms       0.15      99.97     352.71 ms     320.57 ms     384.85 ms
 | | | | | |- sddk::inner|local                                         18     553.45 ms       0.12      78.46       2.92 ms      72.71 us      68.03 ms
 | | | | | |- sddk::inner|store                                         18     151.72 ms       0.03      21.51       2.14 ms       1.40 us      78.09 ms
 | | | | | | |- sddk::inner|store|mpi                                   18     151.04 ms       0.03      99.55       2.08 ms     147.00 ns      77.95 ms
 | | | |
 | | | |- Eigensolver_scalapack|pdsygvx                                  1     535.69 ms       0.12       6.30     535.69 ms     535.69 ms     535.69 ms
 | | | |- sddk::transform                                                1     304.46 ms       0.07       3.58     304.46 ms     304.46 ms     304.46 ms
 | | | | |- sddk::transform|init                                         1      48.10 ms       0.01      15.80      48.10 ms      48.10 ms      48.10 ms
 | | | | |- sddk::transform|mpi                                          2      47.33 ms       0.01      15.55      23.66 ms       2.46 ms      44.87 ms
 | | | | |- sddk::transform|local                                        2     162.96 ms       0.04      53.52      81.48 ms       5.95 ms     157.01 ms
 |
 |- qe|electrons                                                         1      433.58 s      94.35      94.35      433.58 s      433.58 s      433.58 s
 | |- sirius::Hamiltonian0                                              21      69.07 ms       0.02       0.02       3.05 ms       2.93 ms       5.72 ms
 | | |- sirius::Local_operator                                          21      48.20 ms       0.01      69.79       2.05 ms       1.95 ms       4.69 ms
 | | | |- sirius::Smooth_periodic_function                              21       6.75 ms       0.00      14.00     313.53 us     308.59 us     364.36 us
 | | | |- sirius::Smooth_periodic_function::fft_transform               21      38.07 ms       0.01      78.99       1.57 ms       1.45 ms       4.17 ms
 | | |
 | | |- sirius::Non_local_operator                                      42     454.99 us       0.00       0.66      11.03 us       5.02 us      23.20 us
 | | |- sirius::D_operator::initialize                                  21       6.49 ms       0.00       9.40     302.11 us     301.06 us     397.90 us
 | | |- sirius::Q_operator::initialize                                  21       4.08 ms       0.00       5.90     188.83 us     188.31 us     277.87 us
 | |
 | |- sirius::Band::solve                                               21      318.09 s      69.22      73.36       13.91 s        5.01 s       40.46 s
 | | |- sirius::Hamiltonian_k                                           21     482.18 us       0.00       0.00      22.56 us      20.79 us      34.50 us
 | | | |- sirius::Local_operator::prepare_k                             21     449.47 us       0.00      93.22      20.83 us      19.78 us      32.64 us
 | | |
 | | |- sirius::Band::diag_pseudo_potential_davidson                    21      318.09 s      69.22     100.00       13.91 s        5.01 s       40.46 s
 | | | |- sirius::Band::diag_pseudo_potential_davidson|alloc            21     398.01 us       0.00       0.00      18.05 us      15.66 us      32.43 us
 | | | | |- sddk::matrix_storage::matrix_storage                       126     124.10 us       0.00      31.18     803.00 ns     433.00 ns       2.75 us
 | | | |
 | | | |- sirius::Hamiltonian_k::get_h_o_diag                           21     269.49 ms       0.06       0.08      12.82 ms      12.74 ms      13.01 ms
 | | | |- sirius::Band::diag_pseudo_potential_davidson|iter             21      317.82 s      69.16      99.92       13.90 s        4.99 s       40.45 s
 | | | | |- sirius::Hamiltonian_k::apply_h_s                           100      176.46 s      38.40      55.52        1.14 s      60.96 ms        3.93 s
 | | | | | |- sirius::Local_operator::apply_h                          100       65.75 s      14.31      37.26     338.29 ms       1.32 ms        1.60 s
 | | | | | | |- sddk::matrix_storage::remap_forward                    100     358.24 us       0.00       0.00       2.99 us       1.97 us      12.36 us
 | | | | | | | |- sddk::matrix_storage::set_num_extra                  100     317.49 us       0.00      88.63       2.55 us       1.69 us      11.97 us
 | | | | | | |
 | | | | | | |- sddk::matrix_storage::set_num_extra                    100      74.17 us       0.00       0.00     732.50 ns     409.00 ns       1.28 us
 | | | | | | |- sddk::matrix_storage::remap_backward                   100      59.47 us       0.00       0.00     518.50 ns     252.00 ns      10.94 us
 | | | | | |
 | | | | | |- sirius::Beta_projectors_base::inner                      200       41.17 s       8.96      23.33     134.41 ms       9.94 ms     504.41 ms
 | | | | | | |- sirius::Beta_projectors_base::inner|comm               200        8.53 s       1.86      20.73      24.88 ms     162.30 us     144.08 ms
 | | | | | |
 | | | | | |- sirius::Non_local_operator::apply                        400       69.06 s      15.03      39.14     134.34 ms       9.80 ms     446.68 ms
 | | | | |
 | | | | |- sddk::orthogonalize                                        100       45.66 s       9.94      14.37     394.21 ms      11.24 ms        1.51 s
 | | | | | |- sddk::inner                                              179       11.55 s       2.51      25.29      28.47 ms     114.44 us     437.99 ms
 | | | | | | |- sddk::inner|local                                      491        8.11 s       1.77      70.26       7.97 ms      17.14 us      76.93 ms
 | | | | | | |- sddk::inner|store                                      491        3.43 s       0.75      29.68     508.03 us     411.00 ns     298.51 ms
 | | | | | | | |- sddk::inner|store|mpi                                491        3.41 s       0.74      99.55     503.74 us     104.00 ns     298.42 ms
 | | | | | |
 | | | | | |- sddk::orthogonalize|potrf                                100     303.52 ms       0.07       0.66       2.30 ms      88.39 us       9.99 ms
 | | | | | |- sddk::orthogonalize|trtri                                100     275.62 ms       0.06       0.60     552.88 us      51.96 us       9.94 ms
 | | | | | |- sddk::transform                                          379       31.41 s       6.84      68.79      38.52 ms      33.88 us     730.92 ms
 | | | | | | |- sddk::transform|init                                   379        2.64 s       0.57       8.41       2.88 ms       2.24 us      33.13 ms
 | | | | | | |- sddk::transform|mpi                                    446        1.72 s       0.38       5.49       1.54 ms      18.26 us      26.08 ms
 | | | | | | |- sddk::transform|local                                  738       23.77 s       5.17      75.67      10.95 ms       5.39 us     166.02 ms
 | | | | |
 | | | | |- sirius::Band::set_subspace_mtrx                            100        9.39 s       2.04       2.96      75.69 ms       2.95 ms     343.45 ms
 | | | | | |- sddk::inner                                              100        9.34 s       2.03      99.46      75.28 ms       2.80 ms     342.62 ms
 | | | | | | |- sddk::inner|local                                      406        8.07 s       1.76      86.34      12.39 ms     389.79 us      75.52 ms
 | | | | | | |- sddk::inner|store                                      406        1.27 s       0.28      13.61     508.83 us     387.00 ns      22.60 ms
 | | | | | | | |- sddk::inner|store|mpi                                406        1.26 s       0.27      99.21     498.15 us     112.00 ns      22.53 ms
 | | | | |
 | | | | |- sirius::Band::diag_pseudo_potential_davidson|evp           100       65.31 s      14.21      20.55     547.91 ms     183.53 ms        1.58 s
 | | | | | |- Eigensolver_scalapack|pdsyevx                            100       65.31 s      14.21     100.00     547.91 ms     183.53 ms        1.58 s
 | | | | |
 | | | | |- sirius::residuals                                          100       14.56 s       3.17       4.58     110.80 ms      12.35 us     531.30 ms
 | | | | | |- sddk::transform                                           84       13.07 s       2.84      89.80     158.46 ms      13.04 ms     496.66 ms
 | | | | | | |- sddk::transform|init                                    84     939.56 ms       0.20       7.19       6.62 ms      23.96 us      28.27 ms
 | | | | | | |- sddk::transform|mpi                                    152     880.71 ms       0.19       6.74       3.58 ms      52.45 us      38.09 ms
 | | | | | | |- sddk::transform|local                                  304       10.26 s       2.23      78.52      17.72 ms     549.98 us     152.52 ms
 | | | | | |
 | | | | | |- sirius::normalized_preconditioned_residuals               84        1.30 s       0.28       8.92       8.00 ms     298.11 us      42.98 ms
 | | | | |
 | | | | |- sirius::Band::diag_pseudo_potential_davidson|update_phi     21        5.95 s       1.30       1.87     294.85 ms     133.12 ms     507.81 ms
 | | | | | |- sddk::transform                                           21        5.95 s       1.30     100.00     294.84 ms     133.11 ms     507.80 ms
 | | | | | | |- sddk::transform|init                                    21     296.71 ms       0.06       4.98      14.14 ms      14.06 ms      14.24 ms
 | | | | | | |- sddk::transform|mpi                                     38     434.31 ms       0.09       7.29      11.04 ms       5.39 ms      19.83 ms
 | | | | | | |- sddk::transform|local                                   38        4.26 s       0.93      71.60     127.67 ms      34.18 ms     157.73 ms
 | | |
 | | |- sirius::K_point_set::sync_band_energies                         21     460.67 us       0.00       0.00      21.70 us      16.95 us      31.65 us
 | |
 | |- qe|sum_band                                                       21       62.94 s      13.70      14.52        2.99 s        2.96 s        3.07 s
 | | |- sirius::Density::generate                                       21       54.46 s      11.85      86.52        2.58 s        2.56 s        2.65 s
 | | | |- sirius::Density::generate_valence                             21       54.46 s      11.85     100.00        2.58 s        2.56 s        2.65 s
 | | | | |- sddk::matrix_storage::remap_forward                         21     157.58 us       0.00       0.00       6.57 us       5.07 us      20.35 us
 | | | | | |- sddk::matrix_storage::set_num_extra                       21     133.00 us       0.00      84.41       6.08 us       4.78 us       9.02 us
 | | | | |
 | | | | |- sirius::Density::add_k_point_contribution_dm                21       15.34 s       3.34      28.17     728.35 ms     721.22 ms     773.27 ms
 | | | | | |- sirius::Beta_projectors_base::inner                       42       15.32 s       3.33      99.84     363.88 ms     354.98 ms     415.34 ms
 | | | | | | |- sirius::Beta_projectors_base::inner|comm                42        3.12 s       0.68      20.38      73.99 ms      62.24 ms     126.22 ms
 | | | | |
 | | | | |- sirius::Density::add_k_point_contribution_rg                21       15.05 s       3.27      27.63     709.06 ms     690.61 ms     769.69 ms
 | | | | |- sirius::Smooth_periodic_function::fft_transform             21      25.74 ms       0.01       0.05       1.21 ms       1.17 ms       1.49 ms
 | | | | |- sirius::Density::augment                                    21       23.86 s       5.19      43.81        1.14 s        1.09 s        1.20 s
 | | | | | |- sirius::Density::generate_rho_aug                         21       23.86 s       5.19      99.99        1.14 s        1.09 s        1.20 s
 | | | | | | |- sirius::Density::generate_rho_aug|gemm                  42        8.37 s       1.82      35.10     198.26 ms      48.78 ms     352.36 ms
 | | | | | | |- sirius::Density::generate_rho_aug|sum                   42        3.62 s       0.79      15.19      86.23 ms      84.30 ms      86.99 ms
 | | |
 | | |- sirius_api::sirius_get_pw_coeffs                                21        6.45 s       1.40      10.25     301.84 ms     258.30 ms     353.28 ms
 | | | |- sirius::Smooth_periodic_function::gather_f_pw                 21        6.11 s       1.33      94.72     285.70 ms     242.18 ms     337.09 ms
 | | |
 | | |- qe|sym_rho                                                      21      39.10 us       0.00       0.00       1.62 us       1.55 us       6.11 us
 | |
 | |- qe|mix                                                            21        1.19 s       0.26       0.28      62.93 ms     531.23 us      68.30 ms
 | |- sirius_api::sirius_set_pw_coeffs                                  20       26.79 s       5.83       6.18        1.30 s        1.26 s        1.52 s
 | | |- sirius::Smooth_periodic_function::fft_transform                 20     227.25 ms       0.05       0.85      11.39 ms      10.95 ms      11.63 ms
 | |
 | |- qe|newd                                                           20       22.03 s       4.79       5.08        1.10 s        1.09 s        1.11 s
 | | |- sirius::Potential::generate_D_operator_matrix                   20       21.99 s       4.79      99.83        1.10 s        1.09 s        1.11 s
 |
 |- sirius_api::sirius_get_wave_functions                                1        2.09 s       0.46       0.46        2.09 s        2.09 s        2.09 s
 | |- sddk::matrix_storage::matrix_storage                               1      18.91 us       0.00       0.00      18.91 us      18.91 us      18.91 us
 |
 |- qe|ions                                                              1        1.26 s       0.27       0.27        1.26 s        1.26 s        1.26 s
 | |- sirius_api::sirius_set_pw_coeffs                                   1        1.26 s       0.27      99.92        1.26 s        1.26 s        1.26 s
 | | |- sirius::Smooth_periodic_function::fft_transform                  1      11.52 ms       0.00       0.91      11.52 ms      11.52 ms      11.52 ms
 |
 |- qe|punch                                                             1     829.00 ns       0.00       0.00     829.00 ns     829.00 ns     829.00 ns
 |- sirius::finalize                                                     1      20.02 us       0.00       0.00      20.02 us      20.02 us      20.02 us

========================================================================================================================================================
 
Batch Job Summary Report for Job "test_scf" (20933507) on daint
-----------------------------------------------------------------------------------------------------
             Submit            Eligible               Start                 End    Elapsed  Timelimit 
------------------- ------------------- ------------------- ------------------- ---------- ---------- 
2020-03-10T14:11:21 2020-03-10T14:11:21 2020-03-10T14:11:46 2020-03-10T14:19:48   00:08:02   00:20:00 
-----------------------------------------------------------------------------------------------------
Username    Account     Partition   NNodes   Energy
----------  ----------  ----------  ------  --------------
antonk      csstaff     normal           9    1.23M joules
 
This job did not utilize any GPUs
 
----------------------------------------------------------
Scratch File System        Files       Quota
--------------------  ----------  ----------
/scratch/snx3000            2632     1000000
 
