
     Program PWSCF v.6.0 (svn rev. 13079) starts on  1Jun2017 at 17: 1:33 

     This program is part of the open-source Quantum ESPRESSO suite
     for quantum simulation of materials; please cite
         "P. Giannozzi et al., J. Phys.:Condens. Matter 21 395502 (2009);
          URL http://www.quantum-espresso.org", 
     in publications or presentations arising from this work. More details at
     http://www.quantum-espresso.org/quote

     Parallel version (MPI & OpenMP), running on    1024 processor cores
     Number of MPI processes:               512
     Threads/MPI process:                     2
     K-points division:     npool     =      32
     R & G space division:  proc/nbgrp/npool/nimage =      16
     wavefunctions fft division:  fft and procs/group =       4      4
     Reading input from aiida.in

     Current dimensions of program PWSCF are:
     Max number of different atomic species (ntypx) = 10
     Max number of k-points (npk) =  40000
     Max angular momentum in pseudopotentials (lmaxx) =  3

     Subspace diagonalization in iterative solution of the eigenvalue problem:
     one sub-group per band group will be used
     ELPA distributed-memory algorithm (size of sub-group:  4*  4 procs)

 
     Parallelization info
     --------------------
     sticks:   dense  smooth     PW     G-vecs:    dense   smooth      PW
     Min        2719    1359    358               280681    99240   13483
     Max        2721    1360    359               280682    99244   13486
     Sum       43525   21751   5731              4490901  1587865  215739
 


     bravais-lattice index     =            0
     lattice parameter (alat)  =      41.8741  a.u.
     unit-cell volume          =   38938.9232 (a.u.)^3
     number of atoms/cell      =           96
     number of atomic types    =            2
     number of electrons       =       768.00
     number of Kohn-Sham states=          461
     kinetic-energy cutoff     =      45.0000  Ry
     charge density cutoff     =     360.0000  Ry
     convergence threshold     =      9.6E-07
     mixing beta               =       0.3000
     number of iterations used =            8  plain     mixing
     Exchange-correlation      = SLA  PW   PBE  PBE ( 1  4  3  4 0 0)

     celldm(1)=  41.874139  celldm(2)=   0.000000  celldm(3)=   0.000000
     celldm(4)=   0.000000  celldm(5)=   0.000000  celldm(6)=   0.000000

     crystal axes: (cart. coord. in units of alat)
               a(1) = (   1.000000   0.000000   0.000000 )  
               a(2) = (  -0.500000   0.707107  -0.500000 )  
               a(3) = (   0.000000   0.000000   0.750000 )  

     reciprocal axes: (cart. coord. in units 2 pi/alat)
               b(1) = (  1.000000  0.707107  0.000000 )  
               b(2) = (  0.000000  1.414214  0.000000 )  
               b(3) = (  0.000000  0.942809  1.333333 )  


     PseudoPot. # 1 for Cs read from file:
     ./pseudo/Cs_pbe_v1.uspp.F.UPF
     MD5 check sum: 3476d69cb178dfad3ffaa59df4e07ca4
     Pseudo is Ultrasoft + core correction, Zval =  9.0
     Generated by new atomic code, or converted to UPF format
     Using radial grid of  905 points,  6 beta functions with: 
                l(1) =   0
                l(2) =   0
                l(3) =   1
                l(4) =   1
                l(5) =   2
                l(6) =   2
     Q(r) pseudized with  6 coefficients,  rinner =    1.500   1.500   1.500
                                                       1.500   1.500

     PseudoPot. # 2 for I  read from file:
     ./pseudo/I_pbe_v1.uspp.F.UPF
     MD5 check sum: 51366c2fb896752a147e77acbb9f6bcb
     Pseudo is Ultrasoft + core correction, Zval =  7.0
     Generated by new atomic code, or converted to UPF format
     Using radial grid of  893 points,  6 beta functions with: 
                l(1) =   0
                l(2) =   0
                l(3) =   1
                l(4) =   1
                l(5) =   2
                l(6) =   2
     Q(r) pseudized with  8 coefficients,  rinner =    1.500   1.500   1.500
                                                       1.500   1.500

     atomic species   valence    mass     pseudopotential
        Cs             9.00   132.90545     Cs( 1.00)
        I              7.00   126.90447     I ( 1.00)

     No symmetry found


                                    s                        frac. trans.

      isym =  1     identity                                     

 cryst.   s( 1) = (     1          0          0      )
                  (     0          1          0      )
                  (     0          0          1      )

 cart.    s( 1) = (  1.0000000  0.0000000  0.0000000 )
                  (  0.0000000  1.0000000  0.0000000 )
                  (  0.0000000  0.0000000  1.0000000 )


   Cartesian axes

     site n.     atom                  positions (alat units)
         1           Cs  tau(   1) = (   0.5016851   0.7040171   0.2491946  )
         2           Cs  tau(   2) = (  -0.0005245   0.0034273   0.2489938  )
         3           Cs  tau(   3) = (   0.9976400   0.0025432   0.5009983  )
         4           Cs  tau(   4) = (  -0.1266605   0.1799144  -0.1256570  )
         5           Cs  tau(   5) = (  -0.1230821   0.1761033   0.1220163  )
         6           Cs  tau(   6) = (   0.8718588   0.1755469   0.3737137  )
         7           Cs  tau(   7) = (  -0.2465488   0.3531336  -0.2490267  )
         8           Cs  tau(   8) = (  -0.2469086   0.3552182   0.0008401  )
         9           Cs  tau(   9) = (   0.7509833   0.3504877   0.2516336  )
        10           Cs  tau(  10) = (  -0.3723321   0.5284383  -0.3734710  )
        11           Cs  tau(  11) = (   0.6249649   0.5278950  -0.1223348  )
        12           Cs  tau(  12) = (  -0.3723780   0.5323210   0.1264817  )
        13           Cs  tau(  13) = (   0.2499698   0.0014877   0.7467106  )
        14           Cs  tau(  14) = (  -0.2505832   0.7056539  -0.2532532  )
        15           Cs  tau(  15) = (   0.2464527   0.0001094   0.5006624  )
        16           Cs  tau(  16) = (   0.1229119   0.1764942  -0.1220684  )
        17           Cs  tau(  17) = (   0.1283246   0.1780043   0.1256887  )
        18           Cs  tau(  18) = (   0.1242509   0.1799174   0.3766153  )
        19           Cs  tau(  19) = (  -0.0026662   0.3534403  -0.2475684  )
        20           Cs  tau(  20) = (   0.0005214   0.3569910  -0.0009723  )
        21           Cs  tau(  21) = (   0.0010626   0.3568839   0.2490983  )
        22           Cs  tau(  22) = (  -0.1272216   0.5281254   0.3732005  )
        23           Cs  tau(  23) = (  -0.1283069   0.5295110  -0.1261949  )
        24           Cs  tau(  24) = (  -0.1262485   0.5307037   0.1216331  )
        25           Cs  tau(  25) = (   0.4968421   0.0001297   0.7482549  )
        26           Cs  tau(  26) = (  -0.0005299   0.7062776  -0.2465264  )
        27           Cs  tau(  27) = (  -0.0000854   0.7038452  -0.0015457  )
        28           Cs  tau(  28) = (   0.3754984   0.1756729   0.6215989  )
        29           Cs  tau(  29) = (   0.3782012   0.1756421   0.1262245  )
        30           Cs  tau(  30) = (   0.3782557   0.1761927   0.3764469  )
        31           Cs  tau(  31) = (   0.2512724   0.3553727   0.4971530  )
        32           Cs  tau(  32) = (   0.2509133   0.3558638   0.0026195  )
        33           Cs  tau(  33) = (   0.2487434   0.3549424   0.2530864  )
        34           Cs  tau(  34) = (   0.1279374   0.5317215  -0.3734285  )
        35           Cs  tau(  35) = (   0.1245123   0.5314896  -0.1283841  )
        36           Cs  tau(  36) = (   0.1285506   0.5298483   0.1254421  )
        37           Cs  tau(  37) = (   0.7487817   0.0028411  -0.0018650  )
        38           Cs  tau(  38) = (   0.2487220   0.7063448  -0.2532894  )
        39           Cs  tau(  39) = (   0.2475146   0.7046176  -0.0008130  )
        40           Cs  tau(  40) = (   0.6242190   0.1793930  -0.1226380  )
        41           Cs  tau(  41) = (   0.6283201   0.1780358   0.1243474  )
        42           Cs  tau(  42) = (   0.6253221   0.1795927   0.3727637  )
        43           Cs  tau(  43) = (   0.4977911   0.3515730   0.4979426  )
        44           Cs  tau(  44) = (   0.4997217   0.3521028  -0.0032943  )
        45           Cs  tau(  45) = (   0.4980013   0.3507794   0.2488405  )
        46           Cs  tau(  46) = (   0.3743844   0.5338285  -0.3743547  )
        47           Cs  tau(  47) = (   0.3770900   0.5327217  -0.1232836  )
        48           Cs  tau(  48) = (   0.3716294   0.5313523   0.1242072  )
        49           I   tau(  49) = (   0.1246418   0.0007364   0.1285162  )
        50           I   tau(  50) = (  -0.3769410   0.7061880  -0.1220979  )
        51           I   tau(  51) = (   0.1228655   0.0020278   0.6229105  )
        52           I   tau(  52) = (  -0.0029967   0.1778618   0.0016961  )
        53           I   tau(  53) = (   0.0031678   0.1783675   0.2506847  )
        54           I   tau(  54) = (  -0.0020752   0.1747839   0.5021810  )
        55           I   tau(  55) = (  -0.1259705   0.3554435  -0.1220811  )
        56           I   tau(  56) = (  -0.1261629   0.3550341   0.1280805  )
        57           I   tau(  57) = (  -0.1218073   0.3526653   0.3735674  )
        58           I   tau(  58) = (  -0.2529614   0.5304030  -0.2520638  )
        59           I   tau(  59) = (  -0.2500928   0.5288952  -0.0033116  )
        60           I   tau(  60) = (  -0.2530856   0.5284985   0.2503983  )
        61           I   tau(  61) = (  -0.1280555   0.7054660  -0.3739969  )
        62           I   tau(  62) = (   0.3715188   0.0005790   0.3757618  )
        63           I   tau(  63) = (   0.3737766   0.0007681   0.6216913  )
        64           I   tau(  64) = (   0.2532081   0.1779272  -0.0011911  )
        65           I   tau(  65) = (   0.2499793   0.1733412   0.2511095  )
        66           I   tau(  66) = (   0.2504869   0.1757022   0.5034121  )
        67           I   tau(  67) = (   0.1216877   0.3532955  -0.1235870  )
        68           I   tau(  68) = (   0.1217976   0.3548547   0.1239580  )
        69           I   tau(  69) = (   0.1239106   0.3503084   0.3761479  )
        70           I   tau(  70) = (   0.0005137   0.5267678  -0.2497157  )
        71           I   tau(  71) = (  -0.0016257   0.5271728  -0.0006505  )
        72           I   tau(  72) = (   0.0026681   0.5281217   0.2489809  )
        73           I   tau(  73) = (   0.6276949   0.0023492   0.1255032  )
        74           I   tau(  74) = (   0.1274054   0.7054506  -0.1228774  )
        75           I   tau(  75) = (   0.1219606   0.7053951   0.1240692  )
        76           I   tau(  76) = (   0.4977102   0.1791493  -0.0014704  )
        77           I   tau(  77) = (   0.4988692   0.1743891   0.2475393  )
        78           I   tau(  78) = (   0.5033162   0.1782028   0.4999418  )
        79           I   tau(  79) = (   0.3783480   0.3530237  -0.1262428  )
        80           I   tau(  80) = (   0.3714019   0.3535622   0.1252965  )
        81           I   tau(  81) = (   0.3723671   0.3555805   0.3735883  )
        82           I   tau(  82) = (   0.2481170   0.5299536  -0.2469427  )
        83           I   tau(  83) = (   0.2514136   0.5336256   0.0004193  )
        84           I   tau(  84) = (   0.2494774   0.5330127   0.2523590  )
        85           I   tau(  85) = (   0.8721785   0.0021154   0.1242265  )
        86           I   tau(  86) = (   0.3774073   0.7049347  -0.1265878  )
        87           I   tau(  87) = (   0.3728705   0.7060050   0.1223008  )
        88           I   tau(  88) = (   0.7535317   0.1774073   0.0004042  )
        89           I   tau(  89) = (   0.7510157   0.1797323   0.2481925  )
        90           I   tau(  90) = (   0.7506936   0.1757246   0.4966168  )
        91           I   tau(  91) = (   0.6252266   0.3522347  -0.1283532  )
        92           I   tau(  92) = (   0.6242837   0.3545953   0.1216183  )
        93           I   tau(  93) = (   0.6243591   0.3535690   0.3714471  )
        94           I   tau(  94) = (   0.5028678   0.5294571  -0.2520119  )
        95           I   tau(  95) = (   0.5003205   0.5335073   0.0016843  )
        96           I   tau(  96) = (   0.4976583   0.5317994   0.2523220  )

   Crystallographic axes

     site n.     atom                  positions (cryst. coord.)
         1           Cs  tau(   1) = (  0.9995004  0.9956306  0.9960132  )
         2           Cs  tau(   2) = (  0.0018990  0.0048470  0.3352230  )
         3           Cs  tau(   3) = (  0.9994383  0.0035967  0.6703955  )
         4           Cs  tau(   4) = (  0.0005582  0.2544374  0.0020823  )
         5           Cs  tau(   5) = (  0.0014417  0.2490477  0.3287202  )
         6           Cs  tau(   6) = (  0.9959892  0.2482608  0.6637921  )
         7           Cs  tau(   7) = (  0.0031544  0.4994064  0.0009020  )
         8           Cs  tau(   8) = (  0.0042686  0.5023543  0.3360231  )
         9           Cs  tau(   9) = (  0.9988155  0.4956644  0.6659543  )
        10           Cs  tau(  10) = (  0.0013303  0.7473247  0.0002551  )
        11           Cs  tau(  11) = (  0.9982431  0.7465563  0.3345911  )
        12           Cs  tau(  12) = (  0.0040298  0.7528156  0.6705194  )
        13           Cs  tau(  13) = (  0.2510217  0.0021039  0.9970167  )
        14           Cs  tau(  14) = (  0.2483895  0.9979453  0.3276259  )
        15           Cs  tau(  15) = (  0.2465300  0.0001546  0.6676530  )
        16           Cs  tau(  16) = (  0.2477121  0.2496004  0.0036424  )
        17           Cs  tau(  17) = (  0.2541927  0.2517361  0.3354090  )
        18           Cs  tau(  18) = (  0.2514717  0.2544416  0.6717815  )
        19           Cs  tau(  19) = (  0.2472538  0.4998401  0.0031355  )
        20           Cs  tau(  20) = (  0.2529521  0.5048615  0.3352779  )
        21           Cs  tau(  21) = (  0.2534176  0.5047100  0.6686044  )
        22           Cs  tau(  22) = (  0.2462194  0.7468821  0.9955221  )
        23           Cs  tau(  23) = (  0.2461140  0.7488417  0.3309679  )
        24           Cs  tau(  24) = (  0.2490157  0.7505283  0.6625297  )
        25           Cs  tau(  25) = (  0.4969338  0.0001834  0.9977955  )
        26           Cs  tau(  26) = (  0.4988837  0.9988273  0.3371830  )
        27           Cs  tau(  27) = (  0.4976083  0.9953874  0.6615307  )
        28           Cs  tau(  28) = (  0.4997179  0.2484390  0.9944245  )
        29           Cs  tau(  29) = (  0.5023989  0.2483954  0.3338962  )
        30           Cs  tau(  30) = (  0.5028427  0.2491741  0.6680453  )
        31           Cs  tau(  31) = (  0.5025589  0.5025730  0.9979193  )
        32           Cs  tau(  32) = (  0.5025470  0.5032675  0.3390044  )
        33           Cs  tau(  33) = (  0.4997255  0.5019643  0.6720914  )
        34           Cs  tau(  34) = (  0.5039213  0.7519678  0.0034072  )
        35           Cs  tau(  35) = (  0.5003322  0.7516398  0.3299145  )
        36           Cs  tau(  36) = (  0.5032099  0.7493186  0.6668018  )
        37           Cs  tau(  37) = (  0.7507907  0.0040179  0.0001919  )
        38           Cs  tau(  38) = (  0.7481832  0.9989223  0.3282290  )
        39           Cs  tau(  39) = (  0.7457545  0.9964798  0.6632359  )
        40           Cs  tau(  40) = (  0.7510690  0.2537000  0.0056161  )
        41           Cs  tau(  41) = (  0.7542104  0.2517806  0.3336503  )
        42           Cs  tau(  42) = (  0.7523133  0.2539824  0.6663399  )
        43           Cs  tau(  43) = (  0.7463907  0.4971993  0.9953896  )
        44           Cs  tau(  44) = (  0.7486960  0.4979486  0.3275733  )
        45           Cs  tau(  45) = (  0.7460398  0.4960770  0.6625053  )
        46           Cs  tau(  46) = (  0.7518582  0.7549475  0.0041587  )
        47           Cs  tau(  47) = (  0.7537812  0.7533823  0.3378768  )
        48           Cs  tau(  48) = (  0.7473523  0.7514457  0.6665734  )
        49           I   tau(  49) = (  0.1251624  0.0010414  0.1720492  )
        50           I   tau(  50) = (  0.1224093  0.9987006  0.5030033  )
        51           I   tau(  51) = (  0.1242994  0.0028678  0.8324592  )
        52           I   tau(  52) = (  0.1227706  0.2515346  0.1699512  )
        53           I   tau(  53) = (  0.1292926  0.2522497  0.5024127  )
        54           I   tau(  54) = (  0.1215157  0.2471818  0.8343625  )
        55           I   tau(  55) = (  0.1253660  0.5026731  0.1723405  )
        56           I   tau(  56) = (  0.1248842  0.5020940  0.5055034  )
        57           I   tau(  57) = (  0.1275647  0.4987441  0.8305859  )
        58           I   tau(  58) = (  0.1220902  0.7501031  0.1639837  )
        59           I   tau(  59) = (  0.1238925  0.7479707  0.4942317  )
        60           I   tau(  60) = (  0.1206193  0.7474098  0.8321376  )
        61           I   tau(  61) = (  0.3707843  0.9976795  0.1664572  )
        62           I   tau(  62) = (  0.3719282  0.0008188  0.5015616  )
        63           I   tau(  63) = (  0.3743198  0.0010863  0.8296459  )
        64           I   tau(  64) = (  0.3790216  0.2516271  0.1661633  )
        65           I   tau(  65) = (  0.3725500  0.2451414  0.4982402  )
        66           I   tau(  66) = (  0.3747271  0.2484804  0.8368698  )
        67           I   tau(  67) = (  0.3715054  0.4996353  0.1683076  )
        68           I   tau(  68) = (  0.3727178  0.5018403  0.4998376  )
        69           I   tau(  69) = (  0.3716161  0.4954109  0.8318044  )
        70           I   tau(  70) = (  0.3729948  0.7449622  0.1636872  )
        71           I   tau(  71) = (  0.3711418  0.7455350  0.4961559  )
        72           I   tau(  72) = (  0.3761065  0.7468769  0.8298924  )
        73           I   tau(  73) = (  0.6293560  0.0033222  0.1695525  )
        74           I   tau(  74) = (  0.6262343  0.9976579  0.5012687  )
        75           I   tau(  75) = (  0.6207502  0.9975792  0.8304785  )
        76           I   tau(  76) = (  0.6243879  0.2533554  0.1669431  )
        77           I   tau(  77) = (  0.6221809  0.2466235  0.4944681  )
        78           I   tau(  78) = (  0.6293246  0.2520168  0.8346003  )
        79           I   tau(  79) = (  0.6279735  0.4992509  0.1645103  )
        80           I   tau(  80) = (  0.6214082  0.5000125  0.5004037  )
        81           I   tau(  81) = (  0.6238005  0.5028668  0.8333623  )
        82           I   tau(  82) = (  0.6228508  0.7494675  0.1703880  )
        83           I   tau(  83) = (  0.6287438  0.7546605  0.5036661  )
        84           I   tau(  84) = (  0.6263743  0.7537938  0.8390078  )
        85           I   tau(  85) = (  0.8736744  0.0029917  0.1676297  )
        86           I   tau(  86) = (  0.8758714  0.9969282  0.4958351  )
        87           I   tau(  87) = (  0.8720915  0.9984418  0.8286956  )
        88           I   tau(  88) = (  0.8789776  0.2508918  0.1678001  )
        89           I   tau(  89) = (  0.8781057  0.2541798  0.5003766  )
        90           I   tau(  90) = (  0.8749496  0.2485121  0.8278304  )
        91           I   tau(  91) = (  0.8742941  0.4981350  0.1609524  )
        92           I   tau(  92) = (  0.8750205  0.5014735  0.4964734  )
        93           I   tau(  93) = (  0.8743701  0.5000220  0.8286108  )
        94           I   tau(  94) = (  0.8772505  0.7487654  0.1631610  )
        95           I   tau(  95) = (  0.8775672  0.7544933  0.5052412  )
        96           I   tau(  96) = (  0.8736973  0.7520779  0.8378146  )

     number of k points=    89  Marzari-Vanderbilt smearing, width (Ry)=  0.0200
                       cart. coord. in units 2pi/alat
        k(    1) = (   0.0000000   0.0000000   0.0000000), wk =   0.0200000
        k(    2) = (   0.0000000   0.1885618   0.2666667), wk =   0.0400000
        k(    3) = (   0.0000000   0.3771236   0.5333333), wk =   0.0400000
        k(    4) = (   0.0000000   0.2828427   0.0000000), wk =   0.0400000
        k(    5) = (   0.0000000   0.4714045   0.2666667), wk =   0.0400000
        k(    6) = (   0.0000000   0.6599663   0.5333333), wk =   0.0400000
        k(    7) = (   0.0000000  -0.0942809  -0.5333333), wk =   0.0400000
        k(    8) = (   0.0000000   0.0942809  -0.2666667), wk =   0.0400000
        k(    9) = (   0.0000000   0.5656854   0.0000000), wk =   0.0400000
        k(   10) = (   0.0000000   0.7542472   0.2666667), wk =   0.0400000
        k(   11) = (   0.0000000   0.9428090   0.5333333), wk =   0.0400000
        k(   12) = (   0.0000000   0.1885618  -0.5333333), wk =   0.0400000
        k(   13) = (   0.0000000   0.3771236  -0.2666667), wk =   0.0400000
        k(   14) = (   0.2500000   0.1767767   0.0000000), wk =   0.0200000
        k(   15) = (   0.2500000   0.3653385   0.2666667), wk =   0.0200000
        k(   16) = (   0.2500000   0.5539003   0.5333333), wk =   0.0200000
        k(   17) = (   0.2500000  -0.2003469  -0.5333333), wk =   0.0200000
        k(   18) = (   0.2500000  -0.0117851  -0.2666667), wk =   0.0200000
        k(   19) = (   0.2500000   0.4596194   0.0000000), wk =   0.0200000
        k(   20) = (   0.2500000   0.6481812   0.2666667), wk =   0.0200000
        k(   21) = (   0.2500000   0.8367430   0.5333333), wk =   0.0200000
        k(   22) = (   0.2500000   0.0824958  -0.5333333), wk =   0.0200000
        k(   23) = (   0.2500000   0.2710576  -0.2666667), wk =   0.0200000
        k(   24) = (   0.2500000   0.7424621   0.0000000), wk =   0.0200000
        k(   25) = (   0.2500000   0.9310239   0.2666667), wk =   0.0200000
        k(   26) = (   0.2500000   1.1195857   0.5333333), wk =   0.0200000
        k(   27) = (   0.2500000   0.3653385  -0.5333333), wk =   0.0200000
        k(   28) = (   0.2500000   0.5539003  -0.2666667), wk =   0.0200000
        k(   29) = (   0.2500000  -0.3889087   0.0000000), wk =   0.0200000
        k(   30) = (   0.2500000  -0.2003469   0.2666667), wk =   0.0200000
        k(   31) = (   0.2500000  -0.0117851   0.5333333), wk =   0.0200000
        k(   32) = (   0.2500000  -0.7660323  -0.5333333), wk =   0.0200000
        k(   33) = (   0.2500000  -0.5774705  -0.2666667), wk =   0.0200000
        k(   34) = (   0.2500000  -0.1060660   0.0000000), wk =   0.0200000
        k(   35) = (   0.2500000   0.0824958   0.2666667), wk =   0.0200000
        k(   36) = (   0.2500000   0.2710576   0.5333333), wk =   0.0200000
        k(   37) = (   0.2500000  -0.4831896  -0.5333333), wk =   0.0200000
        k(   38) = (   0.2500000  -0.2946278  -0.2666667), wk =   0.0200000
        k(   39) = (  -0.5000000  -0.3535534   0.0000000), wk =   0.0100000
        k(   40) = (  -0.5000000  -0.1649916   0.2666667), wk =   0.0200000
        k(   41) = (  -0.5000000   0.0235702   0.5333333), wk =   0.0200000
        k(   42) = (  -0.5000000  -0.0707107   0.0000000), wk =   0.0200000
        k(   43) = (  -0.5000000   0.1178511   0.2666667), wk =   0.0200000
        k(   44) = (  -0.5000000   0.3064129   0.5333333), wk =   0.0200000
        k(   45) = (  -0.5000000  -0.4478343  -0.5333333), wk =   0.0200000
        k(   46) = (  -0.5000000  -0.2592725  -0.2666667), wk =   0.0200000
        k(   47) = (  -0.5000000   0.2121320   0.0000000), wk =   0.0200000
        k(   48) = (  -0.5000000   0.4006938   0.2666667), wk =   0.0200000
        k(   49) = (  -0.5000000   0.5892557   0.5333333), wk =   0.0200000
        k(   50) = (  -0.5000000  -0.1649916  -0.5333333), wk =   0.0200000
        k(   51) = (  -0.5000000   0.0235702  -0.2666667), wk =   0.0200000
        k(   52) = (   0.2500000  -0.1767767   0.0000000), wk =   0.0200000
        k(   53) = (   0.2500000  -0.3653385  -0.2666667), wk =   0.0200000
        k(   54) = (   0.2500000  -0.5539003  -0.5333333), wk =   0.0200000
        k(   55) = (   0.2500000   0.2003469   0.5333333), wk =   0.0200000
        k(   56) = (   0.2500000   0.0117851   0.2666667), wk =   0.0200000
        k(   57) = (   0.2500000  -0.4596194   0.0000000), wk =   0.0200000
        k(   58) = (   0.2500000  -0.6481812  -0.2666667), wk =   0.0200000
        k(   59) = (   0.2500000  -0.8367430  -0.5333333), wk =   0.0200000
        k(   60) = (   0.2500000  -0.0824958   0.5333333), wk =   0.0200000
        k(   61) = (   0.2500000  -0.2710576   0.2666667), wk =   0.0200000
        k(   62) = (   0.2500000  -0.7424621   0.0000000), wk =   0.0200000
        k(   63) = (   0.2500000  -0.9310239  -0.2666667), wk =   0.0200000
        k(   64) = (   0.2500000  -1.1195857  -0.5333333), wk =   0.0200000
        k(   65) = (   0.2500000  -0.3653385   0.5333333), wk =   0.0200000
        k(   66) = (   0.2500000  -0.5539003   0.2666667), wk =   0.0200000
        k(   67) = (   0.2500000   0.3889087   0.0000000), wk =   0.0200000
        k(   68) = (   0.2500000   0.2003469  -0.2666667), wk =   0.0200000
        k(   69) = (   0.2500000   0.0117851  -0.5333333), wk =   0.0200000
        k(   70) = (   0.2500000   0.7660323   0.5333333), wk =   0.0200000
        k(   71) = (   0.2500000   0.5774705   0.2666667), wk =   0.0200000
        k(   72) = (   0.2500000   0.1060660   0.0000000), wk =   0.0200000
        k(   73) = (   0.2500000  -0.0824958  -0.2666667), wk =   0.0200000
        k(   74) = (   0.2500000  -0.2710576  -0.5333333), wk =   0.0200000
        k(   75) = (   0.2500000   0.4831896   0.5333333), wk =   0.0200000
        k(   76) = (   0.2500000   0.2946278   0.2666667), wk =   0.0200000
        k(   77) = (  -0.5000000   0.3535534   0.0000000), wk =   0.0100000
        k(   78) = (  -0.5000000   0.1649916  -0.2666667), wk =   0.0200000
        k(   79) = (  -0.5000000  -0.0235702  -0.5333333), wk =   0.0200000
        k(   80) = (  -0.5000000   0.0707107   0.0000000), wk =   0.0200000
        k(   81) = (  -0.5000000  -0.1178511  -0.2666667), wk =   0.0200000
        k(   82) = (  -0.5000000  -0.3064129  -0.5333333), wk =   0.0200000
        k(   83) = (  -0.5000000   0.4478343   0.5333333), wk =   0.0200000
        k(   84) = (  -0.5000000   0.2592725   0.2666667), wk =   0.0200000
        k(   85) = (  -0.5000000  -0.2121320   0.0000000), wk =   0.0200000
        k(   86) = (  -0.5000000  -0.4006938  -0.2666667), wk =   0.0200000
        k(   87) = (  -0.5000000  -0.5892557  -0.5333333), wk =   0.0200000
        k(   88) = (  -0.5000000   0.1649916   0.5333333), wk =   0.0200000
        k(   89) = (  -0.5000000  -0.0235702   0.2666667), wk =   0.0200000

                       cryst. coord.
        k(    1) = (   0.0000000   0.0000000   0.0000000), wk =   0.0200000
        k(    2) = (   0.0000000  -0.0000000   0.2000000), wk =   0.0400000
        k(    3) = (   0.0000000  -0.0000000   0.4000000), wk =   0.0400000
        k(    4) = (   0.0000000   0.2000000   0.0000000), wk =   0.0400000
        k(    5) = (   0.0000000   0.2000000   0.2000000), wk =   0.0400000
        k(    6) = (   0.0000000   0.2000000   0.4000000), wk =   0.0400000
        k(    7) = (   0.0000000   0.2000000  -0.4000000), wk =   0.0400000
        k(    8) = (   0.0000000   0.2000000  -0.2000000), wk =   0.0400000
        k(    9) = (   0.0000000   0.4000000   0.0000000), wk =   0.0400000
        k(   10) = (   0.0000000   0.4000000   0.2000000), wk =   0.0400000
        k(   11) = (   0.0000000   0.4000000   0.4000000), wk =   0.0400000
        k(   12) = (   0.0000000   0.4000000  -0.4000000), wk =   0.0400000
        k(   13) = (   0.0000000   0.4000000  -0.2000000), wk =   0.0400000
        k(   14) = (   0.2500000   0.0000000   0.0000000), wk =   0.0200000
        k(   15) = (   0.2500000   0.0000000   0.2000000), wk =   0.0200000
        k(   16) = (   0.2500000  -0.0000000   0.4000000), wk =   0.0200000
        k(   17) = (   0.2500000   0.0000000  -0.4000000), wk =   0.0200000
        k(   18) = (   0.2500000   0.0000000  -0.2000000), wk =   0.0200000
        k(   19) = (   0.2500000   0.2000000   0.0000000), wk =   0.0200000
        k(   20) = (   0.2500000   0.2000000   0.2000000), wk =   0.0200000
        k(   21) = (   0.2500000   0.2000000   0.4000000), wk =   0.0200000
        k(   22) = (   0.2500000   0.2000000  -0.4000000), wk =   0.0200000
        k(   23) = (   0.2500000   0.2000000  -0.2000000), wk =   0.0200000
        k(   24) = (   0.2500000   0.4000000   0.0000000), wk =   0.0200000
        k(   25) = (   0.2500000   0.4000000   0.2000000), wk =   0.0200000
        k(   26) = (   0.2500000   0.4000000   0.4000000), wk =   0.0200000
        k(   27) = (   0.2500000   0.4000000  -0.4000000), wk =   0.0200000
        k(   28) = (   0.2500000   0.4000000  -0.2000000), wk =   0.0200000
        k(   29) = (   0.2500000  -0.4000000   0.0000000), wk =   0.0200000
        k(   30) = (   0.2500000  -0.4000000   0.2000000), wk =   0.0200000
        k(   31) = (   0.2500000  -0.4000000   0.4000000), wk =   0.0200000
        k(   32) = (   0.2500000  -0.4000000  -0.4000000), wk =   0.0200000
        k(   33) = (   0.2500000  -0.4000000  -0.2000000), wk =   0.0200000
        k(   34) = (   0.2500000  -0.2000000   0.0000000), wk =   0.0200000
        k(   35) = (   0.2500000  -0.2000000   0.2000000), wk =   0.0200000
        k(   36) = (   0.2500000  -0.2000000   0.4000000), wk =   0.0200000
        k(   37) = (   0.2500000  -0.2000000  -0.4000000), wk =   0.0200000
        k(   38) = (   0.2500000  -0.2000000  -0.2000000), wk =   0.0200000
        k(   39) = (  -0.5000000   0.0000000   0.0000000), wk =   0.0100000
        k(   40) = (  -0.5000000   0.0000000   0.2000000), wk =   0.0200000
        k(   41) = (  -0.5000000   0.0000000   0.4000000), wk =   0.0200000
        k(   42) = (  -0.5000000   0.2000000   0.0000000), wk =   0.0200000
        k(   43) = (  -0.5000000   0.2000000   0.2000000), wk =   0.0200000
        k(   44) = (  -0.5000000   0.2000000   0.4000000), wk =   0.0200000
        k(   45) = (  -0.5000000   0.2000000  -0.4000000), wk =   0.0200000
        k(   46) = (  -0.5000000   0.2000000  -0.2000000), wk =   0.0200000
        k(   47) = (  -0.5000000   0.4000000   0.0000000), wk =   0.0200000
        k(   48) = (  -0.5000000   0.4000000   0.2000000), wk =   0.0200000
        k(   49) = (  -0.5000000   0.4000000   0.4000000), wk =   0.0200000
        k(   50) = (  -0.5000000   0.4000000  -0.4000000), wk =   0.0200000
        k(   51) = (  -0.5000000   0.4000000  -0.2000000), wk =   0.0200000
        k(   52) = (   0.2500000  -0.2500000   0.0000000), wk =   0.0200000
        k(   53) = (   0.2500000  -0.2500000  -0.2000000), wk =   0.0200000
        k(   54) = (   0.2500000  -0.2500000  -0.4000000), wk =   0.0200000
        k(   55) = (   0.2500000  -0.2500000   0.4000000), wk =   0.0200000
        k(   56) = (   0.2500000  -0.2500000   0.2000000), wk =   0.0200000
        k(   57) = (   0.2500000  -0.4500000   0.0000000), wk =   0.0200000
        k(   58) = (   0.2500000  -0.4500000  -0.2000000), wk =   0.0200000
        k(   59) = (   0.2500000  -0.4500000  -0.4000000), wk =   0.0200000
        k(   60) = (   0.2500000  -0.4500000   0.4000000), wk =   0.0200000
        k(   61) = (   0.2500000  -0.4500000   0.2000000), wk =   0.0200000
        k(   62) = (   0.2500000  -0.6500000   0.0000000), wk =   0.0200000
        k(   63) = (   0.2500000  -0.6500000  -0.2000000), wk =   0.0200000
        k(   64) = (   0.2500000  -0.6500000  -0.4000000), wk =   0.0200000
        k(   65) = (   0.2500000  -0.6500000   0.4000000), wk =   0.0200000
        k(   66) = (   0.2500000  -0.6500000   0.2000000), wk =   0.0200000
        k(   67) = (   0.2500000   0.1500000   0.0000000), wk =   0.0200000
        k(   68) = (   0.2500000   0.1500000  -0.2000000), wk =   0.0200000
        k(   69) = (   0.2500000   0.1500000  -0.4000000), wk =   0.0200000
        k(   70) = (   0.2500000   0.1500000   0.4000000), wk =   0.0200000
        k(   71) = (   0.2500000   0.1500000   0.2000000), wk =   0.0200000
        k(   72) = (   0.2500000  -0.0500000   0.0000000), wk =   0.0200000
        k(   73) = (   0.2500000  -0.0500000  -0.2000000), wk =   0.0200000
        k(   74) = (   0.2500000  -0.0500000  -0.4000000), wk =   0.0200000
        k(   75) = (   0.2500000  -0.0500000   0.4000000), wk =   0.0200000
        k(   76) = (   0.2500000  -0.0500000   0.2000000), wk =   0.0200000
        k(   77) = (  -0.5000000   0.5000000   0.0000000), wk =   0.0100000
        k(   78) = (  -0.5000000   0.5000000  -0.2000000), wk =   0.0200000
        k(   79) = (  -0.5000000   0.5000000  -0.4000000), wk =   0.0200000
        k(   80) = (  -0.5000000   0.3000000   0.0000000), wk =   0.0200000
        k(   81) = (  -0.5000000   0.3000000  -0.2000000), wk =   0.0200000
        k(   82) = (  -0.5000000   0.3000000  -0.4000000), wk =   0.0200000
        k(   83) = (  -0.5000000   0.3000000   0.4000000), wk =   0.0200000
        k(   84) = (  -0.5000000   0.3000000   0.2000000), wk =   0.0200000
        k(   85) = (  -0.5000000   0.1000000   0.0000000), wk =   0.0200000
        k(   86) = (  -0.5000000   0.1000000  -0.2000000), wk =   0.0200000
        k(   87) = (  -0.5000000   0.1000000  -0.4000000), wk =   0.0200000
        k(   88) = (  -0.5000000   0.1000000   0.4000000), wk =   0.0200000
        k(   89) = (  -0.5000000   0.1000000   0.2000000), wk =   0.0200000

     Dense  grid:  4490901 G-vectors     FFT dimensions: ( 256, 256, 192)

     Smooth grid:  1587865 G-vectors     FFT dimensions: ( 180, 180, 135)

     Estimated max dynamical RAM per process >    1562.29Mb

     Estimated total allocated dynamical RAM >  799890.78Mb

     Initial potential from superposition of free atoms

     starting charge  766.10435, renormalised to  768.00000
     Starting wfc are  816 randomized atomic wfcs

     total cpu time spent up to now is      100.5 secs

     per-process dynamical memory:    28.7 Mb

     Self-consistent Calculation

     iteration #  1     ecut=    45.00 Ry     beta=0.30
     Davidson diagonalization with overlap
     ethr =  1.00E-02,  avg # of iterations =  3.0

     Threshold (ethr) on eigenvalues was too large:
     Diagonalizing with lowered threshold

     Davidson diagonalization with overlap
     ethr =  2.79E-04,  avg # of iterations =  4.4

     total cpu time spent up to now is      392.0 secs

     total energy              =   -6188.92879226 Ry
     Harris-Foulkes estimate   =   -6189.60279874 Ry
     estimated scf accuracy    <       2.03092258 Ry

     iteration #  2     ecut=    45.00 Ry     beta=0.30
     Davidson diagonalization with overlap
     ethr =  2.64E-04,  avg # of iterations =  4.0

     total cpu time spent up to now is      566.2 secs

     total energy              =   -6189.36846316 Ry
     Harris-Foulkes estimate   =   -6189.46761244 Ry
     estimated scf accuracy    <       0.47315659 Ry

     iteration #  3     ecut=    45.00 Ry     beta=0.30
     Davidson diagonalization with overlap
     ethr =  6.16E-05,  avg # of iterations = 10.4

     total cpu time spent up to now is      807.0 secs

     total energy              =   -6188.99431720 Ry
     Harris-Foulkes estimate   =   -6189.13477291 Ry
     estimated scf accuracy    <       0.83688259 Ry

     iteration #  4     ecut=    45.00 Ry     beta=0.30
     Davidson diagonalization with overlap
     ethr =  6.16E-05,  avg # of iterations =  8.4

     total cpu time spent up to now is     1000.1 secs

     total energy              =   -6189.13804792 Ry
     Harris-Foulkes estimate   =   -6189.27576047 Ry
     estimated scf accuracy    <       2.61858843 Ry

     iteration #  5     ecut=    45.00 Ry     beta=0.30
     Davidson diagonalization with overlap
     ethr =  6.16E-05,  avg # of iterations =  1.1

     total cpu time spent up to now is     1127.6 secs

     total energy              =   -6189.15632660 Ry
     Harris-Foulkes estimate   =   -6189.23494343 Ry
     estimated scf accuracy    <       1.14452055 Ry

     iteration #  6     ecut=    45.00 Ry     beta=0.30
     Davidson diagonalization with overlap
     ethr =  6.16E-05,  avg # of iterations =  1.0

     total cpu time spent up to now is     1257.5 secs

     total energy              =   -6189.14896792 Ry
     Harris-Foulkes estimate   =   -6189.23733233 Ry
     estimated scf accuracy    <       1.71498367 Ry

     iteration #  7     ecut=    45.00 Ry     beta=0.30
     Davidson diagonalization with overlap
     ethr =  6.16E-05,  avg # of iterations =  1.0

     total cpu time spent up to now is     1385.0 secs

     total energy              =   -6189.15920898 Ry
     Harris-Foulkes estimate   =   -6189.20983500 Ry
     estimated scf accuracy    <       0.97424937 Ry

     iteration #  8     ecut=    45.00 Ry     beta=0.30
     Davidson diagonalization with overlap
     ethr =  6.16E-05,  avg # of iterations =  1.0

     total cpu time spent up to now is     1513.3 secs

     total energy              =   -6189.15922208 Ry
     Harris-Foulkes estimate   =   -6189.19992026 Ry
     estimated scf accuracy    <       0.71097103 Ry

     iteration #  9     ecut=    45.00 Ry     beta=0.30
     Davidson diagonalization with overlap
     ethr =  6.16E-05,  avg # of iterations =  1.0

     total cpu time spent up to now is     1644.5 secs

     total energy              =   -6189.16357723 Ry
     Harris-Foulkes estimate   =   -6189.18838614 Ry
     estimated scf accuracy    <       0.52503781 Ry

     iteration # 10     ecut=    45.00 Ry     beta=0.30
     Davidson diagonalization with overlap
     ethr =  6.16E-05,  avg # of iterations =  1.0

     total cpu time spent up to now is     1773.5 secs

     total energy              =   -6189.16469072 Ry
     Harris-Foulkes estimate   =   -6189.17938153 Ry
     estimated scf accuracy    <       0.31046246 Ry

     iteration # 11     ecut=    45.00 Ry     beta=0.30
     Davidson diagonalization with overlap
     ethr =  4.04E-05,  avg # of iterations =  1.3

     total cpu time spent up to now is     1911.2 secs

     total energy              =   -6189.15506356 Ry
     Harris-Foulkes estimate   =   -6189.17500713 Ry
     estimated scf accuracy    <       0.21279977 Ry

     iteration # 12     ecut=    45.00 Ry     beta=0.30
     Davidson diagonalization with overlap
     ethr =  2.77E-05,  avg # of iterations =  9.0

     total cpu time spent up to now is     2091.0 secs

     total energy              =   -6189.18356361 Ry
     Harris-Foulkes estimate   =   -6189.18972919 Ry
     estimated scf accuracy    <       1.05284434 Ry

     iteration # 13     ecut=    45.00 Ry     beta=0.30
     Davidson diagonalization with overlap
     ethr =  2.77E-05,  avg # of iterations =  7.2

     total cpu time spent up to now is     2266.5 secs

     total energy              =   -6189.09859282 Ry
     Harris-Foulkes estimate   =   -6189.23932425 Ry
     estimated scf accuracy    <       3.64158129 Ry

     iteration # 14     ecut=    45.00 Ry     beta=0.30
     Davidson diagonalization with overlap
     ethr =  2.77E-05,  avg # of iterations =  1.7

     total cpu time spent up to now is     2401.7 secs

     total energy              =   -6189.15476535 Ry
     Harris-Foulkes estimate   =   -6189.17801885 Ry
     estimated scf accuracy    <       0.38130999 Ry

     iteration # 15     ecut=    45.00 Ry     beta=0.30
     Davidson diagonalization with overlap
     ethr =  2.77E-05,  avg # of iterations =  4.1

     total cpu time spent up to now is     2549.1 secs

     total energy              =   -6189.14925359 Ry
     Harris-Foulkes estimate   =   -6189.19457457 Ry
     estimated scf accuracy    <       1.39537008 Ry

     iteration # 16     ecut=    45.00 Ry     beta=0.30
     Davidson diagonalization with overlap
     ethr =  2.77E-05,  avg # of iterations =  1.0

     total cpu time spent up to now is     2676.7 secs

     total energy              =   -6189.16507652 Ry
     Harris-Foulkes estimate   =   -6189.17436420 Ry
     estimated scf accuracy    <       0.20262556 Ry

     iteration # 17     ecut=    45.00 Ry     beta=0.30
     Davidson diagonalization with overlap
     ethr =  2.64E-05,  avg # of iterations =  1.0

     total cpu time spent up to now is     2805.3 secs

     total energy              =   -6189.16032135 Ry
     Harris-Foulkes estimate   =   -6189.17714287 Ry
     estimated scf accuracy    <       0.26696685 Ry

     iteration # 18     ecut=    45.00 Ry     beta=0.30
     Davidson diagonalization with overlap
     ethr =  2.64E-05,  avg # of iterations =  1.0

     total cpu time spent up to now is     2937.6 secs

     total energy              =   -6189.16621550 Ry
     Harris-Foulkes estimate   =   -6189.17395576 Ry
     estimated scf accuracy    <       0.21146795 Ry

     iteration # 19     ecut=    45.00 Ry     beta=0.30
     Davidson diagonalization with overlap
     ethr =  2.64E-05,  avg # of iterations =  1.0

     total cpu time spent up to now is     3066.3 secs

     total energy              =   -6189.16723765 Ry
     Harris-Foulkes estimate   =   -6189.17446114 Ry
     estimated scf accuracy    <       0.15216590 Ry

     iteration # 20     ecut=    45.00 Ry     beta=0.30
     Davidson diagonalization with overlap
     ethr =  1.98E-05,  avg # of iterations =  1.0

     total cpu time spent up to now is     3198.3 secs

     total energy              =   -6189.17037537 Ry
     Harris-Foulkes estimate   =   -6189.17171729 Ry
     estimated scf accuracy    <       0.03837509 Ry

     iteration # 21     ecut=    45.00 Ry     beta=0.30
     Davidson diagonalization with overlap
     ethr =  5.00E-06,  avg # of iterations =  1.0

     total cpu time spent up to now is     3326.7 secs

     total energy              =   -6189.17074227 Ry
     Harris-Foulkes estimate   =   -6189.17146381 Ry
     estimated scf accuracy    <       0.02912896 Ry

     iteration # 22     ecut=    45.00 Ry     beta=0.30
     Davidson diagonalization with overlap
     ethr =  3.79E-06,  avg # of iterations =  1.8

     total cpu time spent up to now is     3492.1 secs

     total energy              =   -6189.16887161 Ry
     Harris-Foulkes estimate   =   -6189.17283266 Ry
     estimated scf accuracy    <       0.05528849 Ry

     iteration # 23     ecut=    45.00 Ry     beta=0.30
     Davidson diagonalization with overlap
     c_bands:  1 eigenvalues not converged
     ethr =  3.79E-06,  avg # of iterations =  9.9

     total cpu time spent up to now is     3688.3 secs

     total energy              =   -6189.15735153 Ry
     Harris-Foulkes estimate   =   -6189.18339473 Ry
     estimated scf accuracy    <       0.53810755 Ry

     iteration # 24     ecut=    45.00 Ry     beta=0.30
     Davidson diagonalization with overlap
     ethr =  3.79E-06,  avg # of iterations =  8.6

     total cpu time spent up to now is     3887.1 secs

     total energy              =   -6189.15471403 Ry
     Harris-Foulkes estimate   =   -6189.19017758 Ry
     estimated scf accuracy    <       0.77220075 Ry

     iteration # 25     ecut=    45.00 Ry     beta=0.30
     Davidson diagonalization with overlap
     ethr =  3.79E-06,  avg # of iterations =  6.6

     total cpu time spent up to now is     4065.7 secs

     total energy              =   -6189.16944791 Ry
     Harris-Foulkes estimate   =   -6189.17385722 Ry
     estimated scf accuracy    <       0.08364419 Ry

     iteration # 26     ecut=    45.00 Ry     beta=0.30
     Davidson diagonalization with overlap
     ethr =  3.79E-06,  avg # of iterations =  1.0

     total cpu time spent up to now is     4193.4 secs

     total energy              =   -6189.16988243 Ry
     Harris-Foulkes estimate   =   -6189.17363257 Ry
     estimated scf accuracy    <       0.07874864 Ry

     iteration # 27     ecut=    45.00 Ry     beta=0.30
     Davidson diagonalization with overlap
     ethr =  3.79E-06,  avg # of iterations =  1.0

     total cpu time spent up to now is     4320.8 secs

     total energy              =   -6189.17164053 Ry
     Harris-Foulkes estimate   =   -6189.17208334 Ry
     estimated scf accuracy    <       0.01017948 Ry

     iteration # 28     ecut=    45.00 Ry     beta=0.30
     Davidson diagonalization with overlap
     ethr =  1.33E-06,  avg # of iterations =  1.0

     total cpu time spent up to now is     4448.0 secs

     total energy              =   -6189.17188893 Ry
     Harris-Foulkes estimate   =   -6189.17202531 Ry
     estimated scf accuracy    <       0.00481590 Ry

     iteration # 29     ecut=    45.00 Ry     beta=0.30
     Davidson diagonalization with overlap
     ethr =  6.27E-07,  avg # of iterations =  1.0

     total cpu time spent up to now is     4575.2 secs

     total energy              =   -6189.17197544 Ry
     Harris-Foulkes estimate   =   -6189.17229754 Ry
     estimated scf accuracy    <       0.00962664 Ry

     iteration # 30     ecut=    45.00 Ry     beta=0.30
     Davidson diagonalization with overlap
     ethr =  6.27E-07,  avg # of iterations =  1.0

     total cpu time spent up to now is     4702.1 secs

     total energy              =   -6189.17199305 Ry
     Harris-Foulkes estimate   =   -6189.17239067 Ry
     estimated scf accuracy    <       0.00659220 Ry

     iteration # 31     ecut=    45.00 Ry     beta=0.30
     Davidson diagonalization with overlap
     ethr =  6.27E-07,  avg # of iterations =  1.0

     total cpu time spent up to now is     4828.6 secs

     total energy              =   -6189.17222450 Ry
     Harris-Foulkes estimate   =   -6189.17222635 Ry
     estimated scf accuracy    <       0.00109328 Ry

     iteration # 32     ecut=    45.00 Ry     beta=0.30
     Davidson diagonalization with overlap
     ethr =  1.42E-07,  avg # of iterations =  1.0

     total cpu time spent up to now is     4955.8 secs

     total energy              =   -6189.17230969 Ry
     Harris-Foulkes estimate   =   -6189.17234372 Ry
     estimated scf accuracy    <       0.00276812 Ry

     iteration # 33     ecut=    45.00 Ry     beta=0.30
     Davidson diagonalization with overlap
     ethr =  1.42E-07,  avg # of iterations =  1.0

     total cpu time spent up to now is     5082.6 secs

     total energy              =   -6189.17222516 Ry
     Harris-Foulkes estimate   =   -6189.17255953 Ry
     estimated scf accuracy    <       0.00681734 Ry

     iteration # 34     ecut=    45.00 Ry     beta=0.30
     Davidson diagonalization with overlap
     ethr =  1.42E-07,  avg # of iterations =  1.0

     total cpu time spent up to now is     5209.5 secs

     total energy              =   -6189.17232623 Ry
     Harris-Foulkes estimate   =   -6189.17247048 Ry
     estimated scf accuracy    <       0.00306019 Ry

     iteration # 35     ecut=    45.00 Ry     beta=0.30
     Davidson diagonalization with overlap
     ethr =  1.42E-07,  avg # of iterations =  1.0

     total cpu time spent up to now is     5336.5 secs

     total energy              =   -6189.17231129 Ry
     Harris-Foulkes estimate   =   -6189.17249875 Ry
     estimated scf accuracy    <       0.00372639 Ry

     iteration # 36     ecut=    45.00 Ry     beta=0.30
     Davidson diagonalization with overlap
     ethr =  1.42E-07,  avg # of iterations =  1.0

     total cpu time spent up to now is     5463.7 secs

     total energy              =   -6189.17223368 Ry
     Harris-Foulkes estimate   =   -6189.17252398 Ry
     estimated scf accuracy    <       0.00486224 Ry

     iteration # 37     ecut=    45.00 Ry     beta=0.30
     Davidson diagonalization with overlap
     ethr =  1.42E-07,  avg # of iterations =  1.0

     total cpu time spent up to now is     5590.8 secs

     total energy              =   -6189.17210650 Ry
     Harris-Foulkes estimate   =   -6189.17267143 Ry
     estimated scf accuracy    <       0.01349612 Ry

     iteration # 38     ecut=    45.00 Ry     beta=0.30
     Davidson diagonalization with overlap
     ethr =  1.42E-07,  avg # of iterations =  1.0

     total cpu time spent up to now is     5718.0 secs

     total energy              =   -6189.17235950 Ry
     Harris-Foulkes estimate   =   -6189.17245452 Ry
     estimated scf accuracy    <       0.00205122 Ry

     iteration # 39     ecut=    45.00 Ry     beta=0.30
     Davidson diagonalization with overlap
     ethr =  1.42E-07,  avg # of iterations =  1.0

     total cpu time spent up to now is     5845.2 secs

     total energy              =   -6189.17241213 Ry
     Harris-Foulkes estimate   =   -6189.17246422 Ry
     estimated scf accuracy    <       0.00206723 Ry

     iteration # 40     ecut=    45.00 Ry     beta=0.30
     Davidson diagonalization with overlap
     ethr =  1.42E-07,  avg # of iterations =  1.0

     total cpu time spent up to now is     5972.6 secs

     total energy              =   -6189.17241477 Ry
     Harris-Foulkes estimate   =   -6189.17248008 Ry
     estimated scf accuracy    <       0.00090338 Ry

     iteration # 41     ecut=    45.00 Ry     beta=0.30
     Davidson diagonalization with overlap
     ethr =  1.18E-07,  avg # of iterations =  1.0

     total cpu time spent up to now is     6099.5 secs

     total energy              =   -6189.17243589 Ry
     Harris-Foulkes estimate   =   -6189.17246026 Ry
     estimated scf accuracy    <       0.00060768 Ry

     iteration # 42     ecut=    45.00 Ry     beta=0.30
     Davidson diagonalization with overlap
     ethr =  7.91E-08,  avg # of iterations =  1.0

     total cpu time spent up to now is     6226.2 secs

     total energy              =   -6189.17244162 Ry
     Harris-Foulkes estimate   =   -6189.17246246 Ry
     estimated scf accuracy    <       0.00040759 Ry

     iteration # 43     ecut=    45.00 Ry     beta=0.30
     Davidson diagonalization with overlap
     ethr =  5.31E-08,  avg # of iterations =  1.0

     total cpu time spent up to now is     6352.6 secs

     total energy              =   -6189.17240306 Ry
     Harris-Foulkes estimate   =   -6189.17251664 Ry
     estimated scf accuracy    <       0.00268978 Ry

     iteration # 44     ecut=    45.00 Ry     beta=0.30
     Davidson diagonalization with overlap
     ethr =  5.31E-08,  avg # of iterations =  1.0

     total cpu time spent up to now is     6480.1 secs

     total energy              =   -6189.17241990 Ry
     Harris-Foulkes estimate   =   -6189.17251209 Ry
     estimated scf accuracy    <       0.00199253 Ry

     iteration # 45     ecut=    45.00 Ry     beta=0.30
     Davidson diagonalization with overlap
     ethr =  5.31E-08,  avg # of iterations =  1.0

     total cpu time spent up to now is     6606.5 secs

     total energy              =   -6189.17244248 Ry
     Harris-Foulkes estimate   =   -6189.17249655 Ry
     estimated scf accuracy    <       0.00146805 Ry

     iteration # 46     ecut=    45.00 Ry     beta=0.30
     Davidson diagonalization with overlap
     ethr =  5.31E-08,  avg # of iterations =  1.0

     total cpu time spent up to now is     6733.2 secs

     total energy              =   -6189.17246578 Ry
     Harris-Foulkes estimate   =   -6189.17247776 Ry
     estimated scf accuracy    <       0.00023538 Ry

     iteration # 47     ecut=    45.00 Ry     beta=0.30
     Davidson diagonalization with overlap
     ethr =  3.06E-08,  avg # of iterations =  1.0

     total cpu time spent up to now is     6859.8 secs

     total energy              =   -6189.17247442 Ry
     Harris-Foulkes estimate   =   -6189.17247506 Ry
     estimated scf accuracy    <       0.00006440 Ry

     iteration # 48     ecut=    45.00 Ry     beta=0.30
     Davidson diagonalization with overlap
     ethr =  8.39E-09,  avg # of iterations =  1.0

     total cpu time spent up to now is     6986.6 secs

     total energy              =   -6189.17247578 Ry
     Harris-Foulkes estimate   =   -6189.17248089 Ry
     estimated scf accuracy    <       0.00012674 Ry

     iteration # 49     ecut=    45.00 Ry     beta=0.30
     Davidson diagonalization with overlap
     ethr =  8.39E-09,  avg # of iterations =  1.0

     total cpu time spent up to now is     7113.1 secs

     total energy              =   -6189.17247986 Ry
     Harris-Foulkes estimate   =   -6189.17248487 Ry
     estimated scf accuracy    <       0.00022729 Ry

     iteration # 50     ecut=    45.00 Ry     beta=0.30
     Davidson diagonalization with overlap
     ethr =  8.39E-09,  avg # of iterations =  1.0

     total cpu time spent up to now is     7239.5 secs

     total energy              =   -6189.17247986 Ry
     Harris-Foulkes estimate   =   -6189.17248626 Ry
     estimated scf accuracy    <       0.00006909 Ry

     iteration # 51     ecut=    45.00 Ry     beta=0.30
     Davidson diagonalization with overlap
     ethr =  8.39E-09,  avg # of iterations =  1.0

     total cpu time spent up to now is     7366.3 secs

     total energy              =   -6189.17248054 Ry
     Harris-Foulkes estimate   =   -6189.17248587 Ry
     estimated scf accuracy    <       0.00014203 Ry

     iteration # 52     ecut=    45.00 Ry     beta=0.30
     Davidson diagonalization with overlap
     ethr =  8.39E-09,  avg # of iterations =  1.0

     total cpu time spent up to now is     7493.1 secs

     total energy              =   -6189.17248536 Ry
     Harris-Foulkes estimate   =   -6189.17248572 Ry
     estimated scf accuracy    <       0.00006443 Ry

     iteration # 53     ecut=    45.00 Ry     beta=0.30
     Davidson diagonalization with overlap
     ethr =  8.39E-09,  avg # of iterations =  1.0

     total cpu time spent up to now is     7619.7 secs

     total energy              =   -6189.17248556 Ry
     Harris-Foulkes estimate   =   -6189.17249111 Ry
     estimated scf accuracy    <       0.00017206 Ry

     iteration # 54     ecut=    45.00 Ry     beta=0.30
     Davidson diagonalization with overlap
     ethr =  8.39E-09,  avg # of iterations =  1.0

     total cpu time spent up to now is     7746.8 secs

     total energy              =   -6189.17248516 Ry
     Harris-Foulkes estimate   =   -6189.17249313 Ry
     estimated scf accuracy    <       0.00015351 Ry

     iteration # 55     ecut=    45.00 Ry     beta=0.30
     Davidson diagonalization with overlap
     ethr =  8.39E-09,  avg # of iterations =  1.0

     total cpu time spent up to now is     7873.4 secs

     total energy              =   -6189.17248469 Ry
     Harris-Foulkes estimate   =   -6189.17249260 Ry
     estimated scf accuracy    <       0.00018485 Ry

     iteration # 56     ecut=    45.00 Ry     beta=0.30
     Davidson diagonalization with overlap
     ethr =  8.39E-09,  avg # of iterations =  1.0

     total cpu time spent up to now is     8000.0 secs

     total energy              =   -6189.17248678 Ry
     Harris-Foulkes estimate   =   -6189.17248983 Ry
     estimated scf accuracy    <       0.00004967 Ry

     iteration # 57     ecut=    45.00 Ry     beta=0.30
     Davidson diagonalization with overlap
     ethr =  6.47E-09,  avg # of iterations =  1.0

     total cpu time spent up to now is     8126.7 secs

     total energy              =   -6189.17248887 Ry
     Harris-Foulkes estimate   =   -6189.17248902 Ry
     estimated scf accuracy    <       0.00002713 Ry

     iteration # 58     ecut=    45.00 Ry     beta=0.30
     Davidson diagonalization with overlap
     ethr =  3.53E-09,  avg # of iterations =  1.0

     total cpu time spent up to now is     8253.5 secs

     total energy              =   -6189.17248952 Ry
     Harris-Foulkes estimate   =   -6189.17249032 Ry
     estimated scf accuracy    <       0.00002096 Ry

     iteration # 59     ecut=    45.00 Ry     beta=0.30
     Davidson diagonalization with overlap
     ethr =  2.73E-09,  avg # of iterations =  1.0

     total cpu time spent up to now is     8380.4 secs

     total energy              =   -6189.17248998 Ry
     Harris-Foulkes estimate   =   -6189.17249102 Ry
     estimated scf accuracy    <       0.00003598 Ry

     iteration # 60     ecut=    45.00 Ry     beta=0.30
     Davidson diagonalization with overlap
     ethr =  2.73E-09,  avg # of iterations =  1.0

     total cpu time spent up to now is     8506.8 secs

     total energy              =   -6189.17249030 Ry
     Harris-Foulkes estimate   =   -6189.17249096 Ry
     estimated scf accuracy    <       0.00000783 Ry

     iteration # 61     ecut=    45.00 Ry     beta=0.30
     Davidson diagonalization with overlap
     ethr =  1.02E-09,  avg # of iterations =  1.0

     total cpu time spent up to now is     8633.4 secs

     total energy              =   -6189.17249015 Ry
     Harris-Foulkes estimate   =   -6189.17249130 Ry
     estimated scf accuracy    <       0.00003263 Ry

     iteration # 62     ecut=    45.00 Ry     beta=0.30
     Davidson diagonalization with overlap
     ethr =  1.02E-09,  avg # of iterations =  1.0

     total cpu time spent up to now is     8760.7 secs

     total energy              =   -6189.17249104 Ry
     Harris-Foulkes estimate   =   -6189.17249118 Ry
     estimated scf accuracy    <       0.00001269 Ry

     iteration # 63     ecut=    45.00 Ry     beta=0.30
     Davidson diagonalization with overlap
     ethr =  1.02E-09,  avg # of iterations =  1.0

     total cpu time spent up to now is     8887.5 secs

     total energy              =   -6189.17249121 Ry
     Harris-Foulkes estimate   =   -6189.17249186 Ry
     estimated scf accuracy    <       0.00001924 Ry

     iteration # 64     ecut=    45.00 Ry     beta=0.30
     Davidson diagonalization with overlap
     ethr =  1.02E-09,  avg # of iterations =  1.0

     total cpu time spent up to now is     9014.3 secs

     total energy              =   -6189.17249142 Ry
     Harris-Foulkes estimate   =   -6189.17249196 Ry
     estimated scf accuracy    <       0.00001244 Ry

     iteration # 65     ecut=    45.00 Ry     beta=0.30
     Davidson diagonalization with overlap
     ethr =  1.02E-09,  avg # of iterations =  1.0

     total cpu time spent up to now is     9141.3 secs

     total energy              =   -6189.17249137 Ry
     Harris-Foulkes estimate   =   -6189.17249196 Ry
     estimated scf accuracy    <       0.00001197 Ry

     iteration # 66     ecut=    45.00 Ry     beta=0.30
     Davidson diagonalization with overlap
     ethr =  1.02E-09,  avg # of iterations =  1.0

     total cpu time spent up to now is     9267.7 secs

     total energy              =   -6189.17249120 Ry
     Harris-Foulkes estimate   =   -6189.17249200 Ry
     estimated scf accuracy    <       0.00001424 Ry

     iteration # 67     ecut=    45.00 Ry     beta=0.30
     Davidson diagonalization with overlap
     ethr =  1.02E-09,  avg # of iterations =  1.0

     total cpu time spent up to now is     9394.6 secs

     total energy              =   -6189.17249145 Ry
     Harris-Foulkes estimate   =   -6189.17249191 Ry
     estimated scf accuracy    <       0.00001347 Ry

     iteration # 68     ecut=    45.00 Ry     beta=0.30
     Davidson diagonalization with overlap
     ethr =  1.02E-09,  avg # of iterations =  1.0

     total cpu time spent up to now is     9521.3 secs

     total energy              =   -6189.17249182 Ry
     Harris-Foulkes estimate   =   -6189.17249193 Ry
     estimated scf accuracy    <       0.00000608 Ry

     iteration # 69     ecut=    45.00 Ry     beta=0.30
     Davidson diagonalization with overlap
     ethr =  7.92E-10,  avg # of iterations =  1.0

     total cpu time spent up to now is     9648.1 secs

     total energy              =   -6189.17249193 Ry
     Harris-Foulkes estimate   =   -6189.17249206 Ry
     estimated scf accuracy    <       0.00000319 Ry

     iteration # 70     ecut=    45.00 Ry     beta=0.30
     Davidson diagonalization with overlap
     ethr =  4.16E-10,  avg # of iterations =  1.0

     total cpu time spent up to now is     9774.5 secs

     total energy              =   -6189.17249200 Ry
     Harris-Foulkes estimate   =   -6189.17249206 Ry
     estimated scf accuracy    <       0.00000153 Ry

     iteration # 71     ecut=    45.00 Ry     beta=0.30
     Davidson diagonalization with overlap
     ethr =  1.99E-10,  avg # of iterations =  1.0

     total cpu time spent up to now is     9900.9 secs

     total energy              =   -6189.17249199 Ry
     Harris-Foulkes estimate   =   -6189.17249213 Ry
     estimated scf accuracy    <       0.00000379 Ry

     iteration # 72     ecut=    45.00 Ry     beta=0.30
     Davidson diagonalization with overlap
     ethr =  1.99E-10,  avg # of iterations =  1.0

     total cpu time spent up to now is    10027.7 secs

     total energy              =   -6189.17249214 Ry
     Harris-Foulkes estimate   =   -6189.17249212 Ry
     estimated scf accuracy    <       0.00000178 Ry

     iteration # 73     ecut=    45.00 Ry     beta=0.30
     Davidson diagonalization with overlap
     ethr =  1.99E-10,  avg # of iterations =  1.0

     total cpu time spent up to now is    10154.5 secs

     total energy              =   -6189.17249216 Ry
     Harris-Foulkes estimate   =   -6189.17249223 Ry
     estimated scf accuracy    <       0.00000176 Ry

     iteration # 74     ecut=    45.00 Ry     beta=0.30
     Davidson diagonalization with overlap
     ethr =  1.99E-10,  avg # of iterations =  1.0

     total cpu time spent up to now is    10281.1 secs

     total energy              =   -6189.17249219 Ry
     Harris-Foulkes estimate   =   -6189.17249224 Ry
     estimated scf accuracy    <       0.00000113 Ry

     iteration # 75     ecut=    45.00 Ry     beta=0.30
     Davidson diagonalization with overlap
     ethr =  1.47E-10,  avg # of iterations =  1.0

     total cpu time spent up to now is    10407.5 secs

     total energy              =   -6189.17249221 Ry
     Harris-Foulkes estimate   =   -6189.17249225 Ry
     estimated scf accuracy    <       0.00000148 Ry

     iteration # 76     ecut=    45.00 Ry     beta=0.30
     Davidson diagonalization with overlap
     ethr =  1.47E-10,  avg # of iterations =  1.0

     total cpu time spent up to now is    10534.6 secs

     total energy              =   -6189.17249219 Ry
     Harris-Foulkes estimate   =   -6189.17249230 Ry
     estimated scf accuracy    <       0.00000244 Ry

     iteration # 77     ecut=    45.00 Ry     beta=0.30
     Davidson diagonalization with overlap
     ethr =  1.47E-10,  avg # of iterations =  1.0

     total cpu time spent up to now is    10661.1 secs

     total energy              =   -6189.17249217 Ry
     Harris-Foulkes estimate   =   -6189.17249234 Ry
     estimated scf accuracy    <       0.00000382 Ry

     iteration # 78     ecut=    45.00 Ry     beta=0.30
     Davidson diagonalization with overlap
     ethr =  1.47E-10,  avg # of iterations =  1.0

     total cpu time spent up to now is    10788.1 secs

     total energy              =   -6189.17249225 Ry
     Harris-Foulkes estimate   =   -6189.17249230 Ry
     estimated scf accuracy    <       0.00000171 Ry

     iteration # 79     ecut=    45.00 Ry     beta=0.30
     Davidson diagonalization with overlap
     ethr =  1.47E-10,  avg # of iterations =  1.0

     total cpu time spent up to now is    10916.1 secs

     End of self-consistent calculation

          k = 0.0000 0.0000 0.0000 (198509 PWs)   bands (ev):

   -19.0047 -19.0034 -18.9983 -18.9789 -18.9718 -18.9717 -18.9620 -18.9612
   -18.9591 -18.9585 -18.9581 -18.9494 -18.9481 -18.9475 -18.9439 -18.9415
   -18.9401 -18.9381 -18.9354 -18.9290 -18.9249 -18.9225 -18.9208 -18.9184
   -18.9164 -18.9134 -18.9117 -18.9112 -18.9093 -18.9068 -18.9063 -18.8974
   -18.8967 -18.8963 -18.8963 -18.8959 -18.8945 -18.8897 -18.8760 -18.8632
   -18.8611 -18.8599 -18.8561 -18.8483 -18.8410 -18.8400 -18.8286 -18.8200
    -9.1933  -9.1932  -9.1854  -9.1838  -9.1805  -9.1791  -9.1782  -9.1778
    -9.1770  -9.1760  -9.1749  -9.1742  -9.1739  -9.1731  -9.1723  -9.1713
    -9.1708  -9.1700  -9.1691  -9.1684  -9.1680  -9.1674  -9.1634  -9.1631
    -9.1623  -9.1610  -9.1602  -9.1600  -9.1594  -9.1582  -9.1577  -9.1572
    -9.1571  -9.1561  -9.1547  -9.1533  -9.1524  -9.1517  -9.1514  -9.1478
    -9.1475  -9.1469  -9.1461  -9.1427  -9.1422  -9.1413  -9.1406  -9.1260
    -5.8863  -5.8710  -5.8635  -5.8606  -5.8542  -5.8504  -5.8471  -5.8456
    -5.8425  -5.8418  -5.8382  -5.8366  -5.8345  -5.8330  -5.8301  -5.8279
    -5.8275  -5.8264  -5.8222  -5.8206  -5.8194  -5.8186  -5.8161  -5.8155
    -5.8115  -5.8095  -5.8071  -5.8055  -5.8044  -5.8035  -5.8027  -5.7991
    -5.7987  -5.7966  -5.7952  -5.7947  -5.7923  -5.7911  -5.7902  -5.7882
    -5.7879  -5.7861  -5.7837  -5.7819  -5.7810  -5.7799  -5.7781  -5.7771
    -5.7745  -5.7736  -5.7724  -5.7711  -5.7697  -5.7684  -5.7669  -5.7666
    -5.7658  -5.7645  -5.7627  -5.7613  -5.7607  -5.7595  -5.7588  -5.7564
    -5.7557  -5.7546  -5.7529  -5.7504  -5.7503  -5.7484  -5.7482  -5.7470
    -5.7452  -5.7444  -5.7426  -5.7409  -5.7398  -5.7384  -5.7375  -5.7370
    -5.7361  -5.7346  -5.7338  -5.7330  -5.7327  -5.7310  -5.7301  -5.7292
    -5.7286  -5.7263  -5.7256  -5.7248  -5.7234  -5.7228  -5.7212  -5.7201
    -5.7200  -5.7188  -5.7169  -5.7156  -5.7154  -5.7138  -5.7125  -5.7112
    -5.7109  -5.7084  -5.7080  -5.7062  -5.7048  -5.7030  -5.7027  -5.7003
    -5.6992  -5.6964  -5.6944  -5.6930  -5.6923  -5.6921  -5.6888  -5.6873
    -5.6848  -5.6836  -5.6829  -5.6801  -5.6794  -5.6761  -5.6758  -5.6749
    -5.6734  -5.6723  -5.6709  -5.6682  -5.6660  -5.6645  -5.6605  -5.6587
    -5.6585  -5.6544  -5.6513  -5.6485  -5.6459  -5.6441  -5.6435  -5.6399
     0.2788   0.2791   0.4114   0.4154   0.4293   0.4296   0.4321   0.4348
     0.4415   0.4449   0.4458   0.4483   0.4498   0.4504   0.4520   0.4558
     0.5002   0.5088   0.5228   0.5294   0.5374   0.5388   0.5412   0.5440
     0.5448   0.5479   0.5490   0.5527   0.5566   0.5618   0.5953   0.5965
     0.6005   0.6023   0.6048   0.6066   0.6084   0.6106   0.6184   0.6210
     0.6232   0.6257   0.6663   0.6681   0.6707   0.6733   0.7147   0.7150
     0.7152   0.7161   0.7266   0.7306   0.7319   0.7334   0.7343   0.7348
     0.7361   0.7366   0.7376   0.7382   0.7392   0.7403   0.7414   0.7586
     0.7607   0.7621   0.7626   0.7641   0.7658   0.7665   0.7682   0.7692
     0.7693   0.7708   0.7712   0.7742   0.7753   0.7819   0.7824   0.7840
     0.7856   0.7879   0.7890   0.7902   0.7924   0.7997   0.8075   0.8119
     0.8129   0.8146   0.8164   0.8173   0.8189   0.8202   0.8223   0.8234
     0.8243   0.8250   0.8258   0.8276   0.8279   0.8296   0.8307   0.8326
     0.8334   0.8346   0.8362   0.8538   0.8548   0.8557   0.8565   0.8582
     0.8616   0.8638   0.8648   0.8659   0.8690   0.8694   0.8711   0.8725
     0.8758   0.8777   0.8806   0.8810   0.8825   0.8846   0.8906   0.9200
     0.9201   0.9228   0.9256   0.9322   0.9326   0.9346   0.9359   0.9373
     0.9404   0.9640   0.9645   0.9655   0.9657   1.0270   1.0273   1.0274
     4.9190   5.5461   5.8661   5.8669   5.8772   5.8806   5.9037   5.9164
     5.9227   5.9288   5.9354   5.9391   5.9486   5.9499   5.9520   5.9623
     5.9944   6.0036   6.1480   6.1577   6.2048   6.2094   6.2200   6.2254
     6.2358   6.2428   6.2431   6.2541   6.2568   6.2663   6.2710   6.2754
     6.4131   6.4173   6.4288   6.4333   6.4497   6.4525   6.5527   6.5665
     6.5959   6.6065   6.6118   6.6223   6.6343   6.6418   6.6874   6.7013
     6.7047   6.7134   6.7181   6.7233   6.7279   6.7297   6.7464   6.7530
     6.7682   6.7910   6.7988   6.8026   6.8094   6.8143   6.8174   6.8235
     6.8262   6.8346   6.8470   6.8739   6.8749   6.8821   6.9502   6.9707
     7.0383   7.0490   7.0566   7.0615   7.0674

     occupation numbers 
     1.0000   1.0000   1.0000   1.0000   1.0000   1.0000   1.0000   1.0000
     1.0000   1.0000   1.0000   1.0000   1.0000   1.0000   1.0000   1.0000
     1.0000   1.0000   1.0000   1.0000   1.0000   1.0000   1.0000   1.0000
     1.0000   1.0000   1.0000   1.0000   1.0000   1.0000   1.0000   1.0000
     1.0000   1.0000   1.0000   1.0000   1.0000   1.0000   1.0000   1.0000
     1.0000   1.0000   1.0000   1.0000   1.0000   1.0000   1.0000   1.0000
     1.0000   1.0000   1.0000   1.0000   1.0000   1.0000   1.0000   1.0000
     1.0000   1.0000   1.0000   1.0000   1.0000   1.0000   1.0000   1.0000
     1.0000   1.0000   1.0000   1.0000   1.0000   1.0000   1.0000   1.0000
     1.0000   1.0000   1.0000   1.0000   1.0000   1.0000   1.0000   1.0000
     1.0000   1.0000   1.0000   1.0000   1.0000   1.0000   1.0000   1.0000
     1.0000   1.0000   1.0000   1.0000   1.0000   1.0000   1.0000   1.0000
     1.0000   1.0000   1.0000   1.0000   1.0000   1.0000   1.0000   1.0000
     1.0000   1.0000   1.0000   1.0000   1.0000   1.0000   1.0000   1.0000
     1.0000   1.0000   1.0000   1.0000   1.0000   1.0000   1.0000   1.0000
     1.0000   1.0000   1.0000   1.0000   1.0000   1.0000   1.0000   1.0000
     1.0000   1.0000   1.0000   1.0000   1.0000   1.0000   1.0000   1.0000
     1.0000   1.0000   1.0000   1.0000   1.0000   1.0000   1.0000   1.0000
     1.0000   1.0000   1.0000   1.0000   1.0000   1.0000   1.0000   1.0000
     1.0000   1.0000   1.0000   1.0000   1.0000   1.0000   1.0000   1.0000
     1.0000   1.0000   1.0000   1.0000   1.0000   1.0000   1.0000   1.0000
     1.0000   1.0000   1.0000   1.0000   1.0000   1.0000   1.0000   1.0000
     1.0000   1.0000   1.0000   1.0000   1.0000   1.0000   1.0000   1.0000
     1.0000   1.0000   1.0000   1.0000   1.0000   1.0000   1.0000   1.0000
     1.0000   1.0000   1.0000   1.0000   1.0000   1.0000   1.0000   1.0000
     1.0000   1.0000   1.0000   1.0000   1.0000   1.0000   1.0000   1.0000
     1.0000   1.0000   1.0000   1.0000   1.0000   1.0000   1.0000   1.0000
     1.0000   1.0000   1.0000   1.0000   1.0000   1.0000   1.0000   1.0000
     1.0000   1.0000   1.0000   1.0000   1.0000   1.0000   1.0000   1.0000
     1.0000   1.0000   1.0000   1.0000   1.0000   1.0000   1.0000   1.0000
     1.0017   1.0017   1.0110   1.0116   1.0136   1.0137   1.0141   1.0145
     1.0157   1.0163   1.0164   1.0169   1.0171   1.0173   1.0176   1.0183
     1.0286   1.0309   1.0350   1.0370   1.0395   1.0399   1.0407   1.0416
     1.0419   1.0429   1.0432   1.0444   1.0457   1.0475   1.0590   1.0595
     1.0608   1.0614   1.0623   1.0629   1.0635   1.0642   1.0668   1.0676
     1.0683   1.0691   1.0796   1.0799   1.0804   1.0808   1.0828   1.0828
     1.0827   1.0827   1.0812   1.0804   1.0802   1.0798   1.0796   1.0795
     1.0791   1.0790   1.0787   1.0786   1.0783   1.0780   1.0777   1.0710
     1.0700   1.0693   1.0690   1.0682   1.0673   1.0669   1.0659   1.0654
     1.0653   1.0644   1.0642   1.0624   1.0617   1.0571   1.0567   1.0556
     1.0543   1.0526   1.0517   1.0507   1.0489   1.0424   1.0348   1.0302
     1.0291   1.0272   1.0252   1.0241   1.0224   1.0208   1.0184   1.0170
     1.0159   1.0150   1.0141   1.0118   1.0113   1.0093   1.0078   1.0052
     1.0042   1.0026   1.0004   0.9742   0.9726   0.9711   0.9699   0.9671
     0.9615   0.9577   0.9558   0.9539   0.9486   0.9478   0.9447   0.9422
     0.9362   0.9326   0.9271   0.9263   0.9234   0.9194   0.9074   0.8432
     0.8431   0.8367   0.8301   0.8142   0.8133   0.8085   0.8052   0.8018
     0.7940   0.7332   0.7319   0.7293   0.7288   0.5607   0.5600   0.5597
     0.0000   0.0000   0.0000   0.0000   0.0000   0.0000   0.0000   0.0000
     0.0000   0.0000   0.0000   0.0000   0.0000   0.0000   0.0000   0.0000
     0.0000   0.0000   0.0000   0.0000   0.0000   0.0000   0.0000   0.0000
     0.0000   0.0000   0.0000   0.0000   0.0000   0.0000   0.0000   0.0000
     0.0000   0.0000   0.0000   0.0000   0.0000   0.0000   0.0000   0.0000
     0.0000   0.0000   0.0000   0.0000   0.0000   0.0000   0.0000   0.0000
     0.0000   0.0000   0.0000   0.0000   0.0000   0.0000   0.0000   0.0000
     0.0000   0.0000   0.0000   0.0000   0.0000   0.0000   0.0000   0.0000
     0.0000   0.0000   0.0000   0.0000   0.0000   0.0000   0.0000   0.0000
     0.0000   0.0000   0.0000   0.0000   0.0000

          k = 0.0000 0.1886 0.2667 (198527 PWs)   bands (ev):

   -19.0047 -19.0034 -18.9983 -18.9789 -18.9718 -18.9717 -18.9620 -18.9612
   -18.9592 -18.9585 -18.9581 -18.9494 -18.9481 -18.9475 -18.9439 -18.9415
   -18.9401 -18.9381 -18.9354 -18.9290 -18.9249 -18.9225 -18.9208 -18.9184
   -18.9164 -18.9134 -18.9117 -18.9112 -18.9093 -18.9068 -18.9063 -18.8974
   -18.8967 -18.8963 -18.8963 -18.8959 -18.8945 -18.8897 -18.8760 -18.8632
   -18.8611 -18.8599 -18.8561 -18.8483 -18.8410 -18.8400 -18.8286 -18.8200
    -9.1913  -9.1907  -9.1894  -9.1872  -9.1798  -9.1788  -9.1779  -9.1773
    -9.1768  -9.1749  -9.1745  -9.1738  -9.1734  -9.1725  -9.1715  -9.1709
    -9.1702  -9.1692  -9.1679  -9.1669  -9.1660  -9.1656  -9.1647  -9.1637
    -9.1631  -9.1617  -9.1610  -9.1600  -9.1597  -9.1588  -9.1584  -9.1574
    -9.1572  -9.1564  -9.1561  -9.1552  -9.1544  -9.1533  -9.1526  -9.1516
    -9.1503  -9.1472  -9.1466  -9.1449  -9.1442  -9.1326  -9.1318  -9.1288
    -5.8810  -5.8775  -5.8749  -5.8572  -5.8546  -5.8532  -5.8504  -5.8465
    -5.8450  -5.8398  -5.8367  -5.8352  -5.8347  -5.8315  -5.8296  -5.8279
    -5.8236  -5.8228  -5.8213  -5.8192  -5.8180  -5.8168  -5.8162  -5.8118
    -5.8106  -5.8100  -5.8076  -5.8064  -5.8035  -5.8013  -5.7991  -5.7982
    -5.7965  -5.7957  -5.7952  -5.7934  -5.7911  -5.7897  -5.7884  -5.7877
    -5.7861  -5.7859  -5.7846  -5.7837  -5.7819  -5.7815  -5.7790  -5.7780
    -5.7748  -5.7734  -5.7726  -5.7713  -5.7703  -5.7692  -5.7683  -5.7676
    -5.7660  -5.7640  -5.7633  -5.7624  -5.7614  -5.7601  -5.7587  -5.7573
    -5.7557  -5.7547  -5.7519  -5.7513  -5.7501  -5.7491  -5.7481  -5.7465
    -5.7454  -5.7440  -5.7433  -5.7421  -5.7408  -5.7400  -5.7396  -5.7376
    -5.7370  -5.7351  -5.7350  -5.7330  -5.7325  -5.7313  -5.7307  -5.7293
    -5.7288  -5.7271  -5.7260  -5.7243  -5.7237  -5.7232  -5.7224  -5.7208
    -5.7204  -5.7192  -5.7172  -5.7161  -5.7142  -5.7125  -5.7120  -5.7110
    -5.7100  -5.7086  -5.7070  -5.7063  -5.7046  -5.7033  -5.7021  -5.7003
    -5.6988  -5.6963  -5.6959  -5.6945  -5.6924  -5.6901  -5.6882  -5.6861
    -5.6851  -5.6835  -5.6824  -5.6810  -5.6795  -5.6764  -5.6754  -5.6741
    -5.6727  -5.6715  -5.6703  -5.6684  -5.6657  -5.6637  -5.6608  -5.6588
    -5.6572  -5.6543  -5.6521  -5.6481  -5.6466  -5.6452  -5.6439  -5.6397
     0.3012   0.3029   0.3303   0.3367   0.4286   0.4295   0.4308   0.4321
     0.4397   0.4409   0.4582   0.4681   0.4789   0.4821   0.4911   0.4929
     0.5009   0.5024   0.5217   0.5394   0.5423   0.5433   0.5438   0.5451
     0.5478   0.5497   0.5527   0.5605   0.5633   0.5682   0.5760   0.5793
     0.5838   0.5916   0.5929   0.5940   0.6066   0.6081   0.6190   0.6208
     0.6232   0.6265   0.6318   0.6329   0.7166   0.7172   0.7185   0.7192
     0.7228   0.7234   0.7241   0.7261   0.7286   0.7291   0.7306   0.7323
     0.7334   0.7362   0.7376   0.7397   0.7427   0.7438   0.7506   0.7513
     0.7552   0.7567   0.7587   0.7590   0.7601   0.7606   0.7625   0.7630
     0.7641   0.7664   0.7684   0.7700   0.7708   0.7723   0.7761   0.7784
     0.7793   0.7811   0.7830   0.8046   0.8059   0.8075   0.8096   0.8114
     0.8127   0.8140   0.8153   0.8180   0.8222   0.8228   0.8256   0.8264
     0.8285   0.8292   0.8297   0.8319   0.8332   0.8349   0.8363   0.8372
     0.8409   0.8427   0.8484   0.8504   0.8529   0.8550   0.8566   0.8584
     0.8619   0.8632   0.8651   0.8686   0.8700   0.8708   0.8757   0.8794
     0.8806   0.8828   0.8854   0.8877   0.8931   0.8962   0.9004   0.9084
     0.9113   0.9120   0.9131   0.9147   0.9237   0.9352   0.9447   0.9531
     0.9594   0.9605   0.9621   0.9630   0.9649   0.9856   1.0127   1.0129
     5.0089   5.6010   5.6666   5.6696   5.7927   5.8272   5.8341   5.9318
     5.9550   5.9624   5.9671   5.9737   5.9861   5.9937   5.9967   6.0532
     6.1072   6.1082   6.1456   6.1536   6.1642   6.1656   6.2250   6.2313
     6.2393   6.2521   6.2805   6.2833   6.3031   6.3152   6.3367   6.3470
     6.3633   6.3847   6.3898   6.4159   6.4226   6.5680   6.5686   6.5831
     6.5939   6.6215   6.6248   6.6491   6.6584   6.6659   6.6703   6.6935
     6.6963   6.7006   6.7116   6.7164   6.7223   6.7300   6.7460   6.7540
     6.7600   6.7688   6.7713   6.7790   6.7849   6.7901   6.7969   6.8005
     6.8108   6.8183   6.8280   6.8313   6.8545   6.8579   6.8665   6.8740
     6.9164   6.9250   6.9307   6.9659   6.9685

     occupation numbers 
     1.0000   1.0000   1.0000   1.0000   1.0000   1.0000   1.0000   1.0000
     1.0000   1.0000   1.0000   1.0000   1.0000   1.0000   1.0000   1.0000
     1.0000   1.0000   1.0000   1.0000   1.0000   1.0000   1.0000   1.0000
     1.0000   1.0000   1.0000   1.0000   1.0000   1.0000   1.0000   1.0000
     1.0000   1.0000   1.0000   1.0000   1.0000   1.0000   1.0000   1.0000
     1.0000   1.0000   1.0000   1.0000   1.0000   1.0000   1.0000   1.0000
     1.0000   1.0000   1.0000   1.0000   1.0000   1.0000   1.0000   1.0000
     1.0000   1.0000   1.0000   1.0000   1.0000   1.0000   1.0000   1.0000
     1.0000   1.0000   1.0000   1.0000   1.0000   1.0000   1.0000   1.0000
     1.0000   1.0000   1.0000   1.0000   1.0000   1.0000   1.0000   1.0000
     1.0000   1.0000   1.0000   1.0000   1.0000   1.0000   1.0000   1.0000
     1.0000   1.0000   1.0000   1.0000   1.0000   1.0000   1.0000   1.0000
     1.0000   1.0000   1.0000   1.0000   1.0000   1.0000   1.0000   1.0000
     1.0000   1.0000   1.0000   1.0000   1.0000   1.0000   1.0000   1.0000
     1.0000   1.0000   1.0000   1.0000   1.0000   1.0000   1.0000   1.0000
     1.0000   1.0000   1.0000   1.0000   1.0000   1.0000   1.0000   1.0000
     1.0000   1.0000   1.0000   1.0000   1.0000   1.0000   1.0000   1.0000
     1.0000   1.0000   1.0000   1.0000   1.0000   1.0000   1.0000   1.0000
     1.0000   1.0000   1.0000   1.0000   1.0000   1.0000   1.0000   1.0000
     1.0000   1.0000   1.0000   1.0000   1.0000   1.0000   1.0000   1.0000
     1.0000   1.0000   1.0000   1.0000   1.0000   1.0000   1.0000   1.0000
     1.0000   1.0000   1.0000   1.0000   1.0000   1.0000   1.0000   1.0000
     1.0000   1.0000   1.0000   1.0000   1.0000   1.0000   1.0000   1.0000
     1.0000   1.0000   1.0000   1.0000   1.0000   1.0000   1.0000   1.0000
     1.0000   1.0000   1.0000   1.0000   1.0000   1.0000   1.0000   1.0000
     1.0000   1.0000   1.0000   1.0000   1.0000   1.0000   1.0000   1.0000
     1.0000   1.0000   1.0000   1.0000   1.0000   1.0000   1.0000   1.0000
     1.0000   1.0000   1.0000   1.0000   1.0000   1.0000   1.0000   1.0000
     1.0000   1.0000   1.0000   1.0000   1.0000   1.0000   1.0000   1.0000
     1.0000   1.0000   1.0000   1.0000   1.0000   1.0000   1.0000   1.0000
     1.0024   1.0025   1.0037   1.0041   1.0135   1.0136   1.0139   1.0141
     1.0153   1.0155   1.0188   1.0209   1.0233   1.0240   1.0262   1.0267
     1.0288   1.0292   1.0346   1.0401   1.0411   1.0414   1.0415   1.0420
     1.0428   1.0435   1.0444   1.0471   1.0480   1.0497   1.0524   1.0535
     1.0551   1.0577   1.0582   1.0586   1.0629   1.0634   1.0670   1.0675
     1.0683   1.0693   1.0709   1.0713   1.0826   1.0826   1.0824   1.0823
     1.0819   1.0818   1.0816   1.0813   1.0808   1.0808   1.0804   1.0801
     1.0798   1.0791   1.0788   1.0782   1.0772   1.0769   1.0744   1.0742
     1.0725   1.0718   1.0709   1.0708   1.0703   1.0700   1.0690   1.0688
     1.0682   1.0670   1.0659   1.0649   1.0645   1.0635   1.0611   1.0596
     1.0590   1.0577   1.0563   1.0377   1.0364   1.0348   1.0327   1.0308
     1.0294   1.0280   1.0265   1.0234   1.0185   1.0177   1.0143   1.0133
     1.0106   1.0097   1.0090   1.0062   1.0045   1.0022   1.0003   0.9991
     0.9937   0.9912   0.9827   0.9796   0.9756   0.9723   0.9697   0.9667
     0.9609   0.9587   0.9554   0.9493   0.9468   0.9453   0.9364   0.9294
     0.9270   0.9229   0.9178   0.9132   0.9022   0.8957   0.8870   0.8696
     0.8630   0.8616   0.8591   0.8554   0.8346   0.8069   0.7833   0.7618
     0.7454   0.7426   0.7382   0.7359   0.7309   0.6753   0.6006   0.6000
     0.0000   0.0000   0.0000   0.0000   0.0000   0.0000   0.0000   0.0000
     0.0000   0.0000   0.0000   0.0000   0.0000   0.0000   0.0000   0.0000
     0.0000   0.0000   0.0000   0.0000   0.0000   0.0000   0.0000   0.0000
[...]
    -5.7882  -5.7867  -5.7845  -5.7823  -5.7807  -5.7791  -5.7781  -5.7772
    -5.7759  -5.7745  -5.7731  -5.7721  -5.7699  -5.7693  -5.7691  -5.7678
    -5.7666  -5.7660  -5.7648  -5.7630  -5.7622  -5.7599  -5.7579  -5.7572
    -5.7559  -5.7544  -5.7530  -5.7521  -5.7508  -5.7498  -5.7487  -5.7468
    -5.7464  -5.7456  -5.7452  -5.7432  -5.7419  -5.7412  -5.7396  -5.7378
    -5.7373  -5.7354  -5.7348  -5.7337  -5.7326  -5.7309  -5.7298  -5.7284
    -5.7275  -5.7255  -5.7250  -5.7238  -5.7234  -5.7226  -5.7213  -5.7199
    -5.7186  -5.7175  -5.7162  -5.7150  -5.7138  -5.7133  -5.7123  -5.7104
    -5.7093  -5.7086  -5.7072  -5.7055  -5.7047  -5.7030  -5.7019  -5.7007
    -5.6992  -5.6975  -5.6964  -5.6949  -5.6916  -5.6906  -5.6869  -5.6858
    -5.6839  -5.6830  -5.6819  -5.6806  -5.6783  -5.6774  -5.6748  -5.6732
    -5.6725  -5.6717  -5.6694  -5.6685  -5.6667  -5.6637  -5.6605  -5.6590
    -5.6587  -5.6548  -5.6531  -5.6492  -5.6481  -5.6462  -5.6443  -5.6405
     0.3523   0.3538   0.3674   0.3685   0.3727   0.3754   0.4062   0.4072
     0.4259   0.4296   0.4605   0.4638   0.4697   0.4719   0.4744   0.4777
     0.4798   0.4810   0.4900   0.4928   0.4954   0.5063   0.5113   0.5210
     0.5301   0.5313   0.5349   0.5543   0.5608   0.5871   0.5909   0.5998
     0.6037   0.6049   0.6179   0.6242   0.6365   0.6386   0.6467   0.6832
     0.6845   0.6916   0.6936   0.7206   0.7208   0.7219   0.7247   0.7266
     0.7271   0.7284   0.7297   0.7308   0.7321   0.7345   0.7352   0.7371
     0.7399   0.7413   0.7438   0.7455   0.7513   0.7529   0.7558   0.7580
     0.7600   0.7601   0.7608   0.7616   0.7639   0.7648   0.7664   0.7671
     0.7686   0.7697   0.7702   0.7721   0.7733   0.7744   0.7761   0.7765
     0.7780   0.7804   0.7815   0.7828   0.7837   0.7850   0.7892   0.7941
     0.7984   0.8005   0.8034   0.8087   0.8107   0.8126   0.8136   0.8153
     0.8195   0.8210   0.8218   0.8252   0.8272   0.8285   0.8322   0.8354
     0.8382   0.8408   0.8422   0.8438   0.8476   0.8520   0.8550   0.8578
     0.8613   0.8654   0.8664   0.8670   0.8685   0.8703   0.8725   0.8744
     0.8760   0.8853   0.8870   0.8893   0.8945   0.8969   0.8993   0.9024
     0.9045   0.9084   0.9112   0.9136   0.9207   0.9257   0.9365   0.9412
     0.9457   0.9555   0.9678   0.9747   0.9879   0.9883   0.9932   1.0024
     5.3168   5.4984   5.5150   5.6962   5.7366   5.7505   5.7770   5.7819
     5.7942   5.8864   5.8983   5.9540   6.0276   6.0517   6.0997   6.1126
     6.1800   6.2084   6.2188   6.2277   6.2320   6.2565   6.2826   6.2888
     6.3079   6.3117   6.3200   6.3458   6.3492   6.3685   6.3828   6.3984
     6.4034   6.4097   6.4232   6.4325   6.4546   6.4727   6.4829   6.5232
     6.5279   6.5314   6.5400   6.5515   6.5615   6.5640   6.5761   6.5865
     6.5937   6.6245   6.6728   6.6883   6.6983   6.7048   6.7214   6.7361
     6.7502   6.7542   6.7662   6.7804   6.7890   6.7958   6.8023   6.8172
     6.8236   6.8268   6.8339   6.8735   6.8787   6.9194   6.9360   6.9505
     6.9640   6.9780   6.9876   7.0004   7.0257

     occupation numbers 
     1.0000   1.0000   1.0000   1.0000   1.0000   1.0000   1.0000   1.0000
     1.0000   1.0000   1.0000   1.0000   1.0000   1.0000   1.0000   1.0000
     1.0000   1.0000   1.0000   1.0000   1.0000   1.0000   1.0000   1.0000
     1.0000   1.0000   1.0000   1.0000   1.0000   1.0000   1.0000   1.0000
     1.0000   1.0000   1.0000   1.0000   1.0000   1.0000   1.0000   1.0000
     1.0000   1.0000   1.0000   1.0000   1.0000   1.0000   1.0000   1.0000
     1.0000   1.0000   1.0000   1.0000   1.0000   1.0000   1.0000   1.0000
     1.0000   1.0000   1.0000   1.0000   1.0000   1.0000   1.0000   1.0000
     1.0000   1.0000   1.0000   1.0000   1.0000   1.0000   1.0000   1.0000
     1.0000   1.0000   1.0000   1.0000   1.0000   1.0000   1.0000   1.0000
     1.0000   1.0000   1.0000   1.0000   1.0000   1.0000   1.0000   1.0000
     1.0000   1.0000   1.0000   1.0000   1.0000   1.0000   1.0000   1.0000
     1.0000   1.0000   1.0000   1.0000   1.0000   1.0000   1.0000   1.0000
     1.0000   1.0000   1.0000   1.0000   1.0000   1.0000   1.0000   1.0000
     1.0000   1.0000   1.0000   1.0000   1.0000   1.0000   1.0000   1.0000
     1.0000   1.0000   1.0000   1.0000   1.0000   1.0000   1.0000   1.0000
     1.0000   1.0000   1.0000   1.0000   1.0000   1.0000   1.0000   1.0000
     1.0000   1.0000   1.0000   1.0000   1.0000   1.0000   1.0000   1.0000
     1.0000   1.0000   1.0000   1.0000   1.0000   1.0000   1.0000   1.0000
     1.0000   1.0000   1.0000   1.0000   1.0000   1.0000   1.0000   1.0000
     1.0000   1.0000   1.0000   1.0000   1.0000   1.0000   1.0000   1.0000
     1.0000   1.0000   1.0000   1.0000   1.0000   1.0000   1.0000   1.0000
     1.0000   1.0000   1.0000   1.0000   1.0000   1.0000   1.0000   1.0000
     1.0000   1.0000   1.0000   1.0000   1.0000   1.0000   1.0000   1.0000
     1.0000   1.0000   1.0000   1.0000   1.0000   1.0000   1.0000   1.0000
     1.0000   1.0000   1.0000   1.0000   1.0000   1.0000   1.0000   1.0000
     1.0000   1.0000   1.0000   1.0000   1.0000   1.0000   1.0000   1.0000
     1.0000   1.0000   1.0000   1.0000   1.0000   1.0000   1.0000   1.0000
     1.0000   1.0000   1.0000   1.0000   1.0000   1.0000   1.0000   1.0000
     1.0000   1.0000   1.0000   1.0000   1.0000   1.0000   1.0000   1.0000
     1.0051   1.0052   1.0063   1.0064   1.0067   1.0070   1.0103   1.0105
     1.0131   1.0137   1.0193   1.0199   1.0212   1.0217   1.0222   1.0230
     1.0235   1.0238   1.0260   1.0267   1.0273   1.0302   1.0317   1.0344
     1.0372   1.0376   1.0387   1.0450   1.0472   1.0562   1.0575   1.0606
     1.0619   1.0623   1.0666   1.0686   1.0723   1.0729   1.0751   1.0822
     1.0823   1.0830   1.0831   1.0822   1.0821   1.0820   1.0815   1.0812
     1.0811   1.0809   1.0806   1.0804   1.0801   1.0795   1.0794   1.0789
     1.0781   1.0777   1.0769   1.0763   1.0742   1.0735   1.0723   1.0713
     1.0703   1.0702   1.0699   1.0695   1.0683   1.0679   1.0670   1.0666
     1.0657   1.0651   1.0648   1.0636   1.0629   1.0622   1.0611   1.0608
     1.0598   1.0582   1.0574   1.0565   1.0558   1.0548   1.0515   1.0474
     1.0436   1.0417   1.0389   1.0336   1.0315   1.0294   1.0283   1.0265
     1.0217   1.0198   1.0189   1.0148   1.0122   1.0107   1.0058   1.0015
     0.9976   0.9939   0.9920   0.9895   0.9838   0.9770   0.9723   0.9678
     0.9619   0.9548   0.9532   0.9521   0.9495   0.9462   0.9422   0.9387
     0.9359   0.9180   0.9147   0.9100   0.8993   0.8944   0.8893   0.8826
     0.8782   0.8695   0.8632   0.8579   0.8417   0.8299   0.8038   0.7920
     0.7807   0.7555   0.7233   0.7048   0.6690   0.6679   0.6543   0.6290
     0.0000   0.0000   0.0000   0.0000   0.0000   0.0000   0.0000   0.0000
     0.0000   0.0000   0.0000   0.0000   0.0000   0.0000   0.0000   0.0000
     0.0000   0.0000   0.0000   0.0000   0.0000   0.0000   0.0000   0.0000
     0.0000   0.0000   0.0000   0.0000   0.0000   0.0000   0.0000   0.0000
     0.0000   0.0000   0.0000   0.0000   0.0000   0.0000   0.0000   0.0000
     0.0000   0.0000   0.0000   0.0000   0.0000   0.0000   0.0000   0.0000
     0.0000   0.0000   0.0000   0.0000   0.0000   0.0000   0.0000   0.0000
     0.0000   0.0000   0.0000   0.0000   0.0000   0.0000   0.0000   0.0000
     0.0000   0.0000   0.0000   0.0000   0.0000   0.0000   0.0000   0.0000
     0.0000   0.0000   0.0000   0.0000   0.0000

          k =-0.5000-0.0236 0.2667 (198483 PWs)   bands (ev):

   -19.0047 -19.0034 -18.9983 -18.9789 -18.9718 -18.9717 -18.9620 -18.9612
   -18.9592 -18.9585 -18.9581 -18.9494 -18.9481 -18.9475 -18.9439 -18.9415
   -18.9401 -18.9381 -18.9354 -18.9290 -18.9249 -18.9225 -18.9208 -18.9184
   -18.9164 -18.9134 -18.9117 -18.9112 -18.9093 -18.9068 -18.9063 -18.8974
   -18.8967 -18.8964 -18.8963 -18.8959 -18.8945 -18.8897 -18.8760 -18.8632
   -18.8611 -18.8599 -18.8561 -18.8483 -18.8410 -18.8400 -18.8286 -18.8200
    -9.1880  -9.1877  -9.1854  -9.1848  -9.1817  -9.1814  -9.1804  -9.1795
    -9.1782  -9.1770  -9.1754  -9.1748  -9.1743  -9.1730  -9.1723  -9.1716
    -9.1703  -9.1696  -9.1683  -9.1677  -9.1669  -9.1663  -9.1661  -9.1656
    -9.1647  -9.1639  -9.1629  -9.1619  -9.1612  -9.1597  -9.1588  -9.1566
    -9.1555  -9.1544  -9.1538  -9.1531  -9.1513  -9.1503  -9.1487  -9.1477
    -9.1470  -9.1460  -9.1454  -9.1430  -9.1406  -9.1380  -9.1351  -9.1326
    -5.8794  -5.8787  -5.8728  -5.8590  -5.8570  -5.8549  -5.8537  -5.8490
    -5.8454  -5.8384  -5.8357  -5.8349  -5.8329  -5.8315  -5.8289  -5.8273
    -5.8243  -5.8233  -5.8222  -5.8195  -5.8173  -5.8138  -5.8127  -5.8121
    -5.8107  -5.8081  -5.8062  -5.8051  -5.8032  -5.8022  -5.7994  -5.7970
    -5.7962  -5.7955  -5.7946  -5.7932  -5.7918  -5.7909  -5.7895  -5.7871
    -5.7864  -5.7850  -5.7828  -5.7815  -5.7811  -5.7796  -5.7772  -5.7766
    -5.7753  -5.7741  -5.7730  -5.7712  -5.7702  -5.7697  -5.7688  -5.7668
    -5.7662  -5.7652  -5.7638  -5.7635  -5.7618  -5.7611  -5.7595  -5.7570
    -5.7561  -5.7545  -5.7529  -5.7521  -5.7515  -5.7500  -5.7488  -5.7475
    -5.7463  -5.7446  -5.7436  -5.7430  -5.7419  -5.7406  -5.7390  -5.7385
    -5.7375  -5.7365  -5.7351  -5.7341  -5.7334  -5.7317  -5.7309  -5.7303
    -5.7297  -5.7278  -5.7272  -5.7261  -5.7251  -5.7229  -5.7219  -5.7211
    -5.7192  -5.7184  -5.7174  -5.7164  -5.7145  -5.7132  -5.7117  -5.7104
    -5.7095  -5.7081  -5.7058  -5.7047  -5.7029  -5.7022  -5.7015  -5.7008
    -5.6970  -5.6965  -5.6955  -5.6942  -5.6915  -5.6903  -5.6880  -5.6860
    -5.6845  -5.6834  -5.6827  -5.6797  -5.6782  -5.6762  -5.6758  -5.6739
    -5.6726  -5.6707  -5.6695  -5.6681  -5.6661  -5.6631  -5.6606  -5.6592
    -5.6581  -5.6547  -5.6527  -5.6481  -5.6469  -5.6454  -5.6440  -5.6403
     0.3421   0.3430   0.3613   0.3633   0.4021   0.4041   0.4252   0.4333
     0.4362   0.4412   0.4445   0.4563   0.4663   0.4689   0.4715   0.4740
     0.4784   0.4900   0.4933   0.4955   0.5049   0.5053   0.5085   0.5116
     0.5273   0.5322   0.5466   0.5543   0.5598   0.5639   0.5833   0.5858
     0.5967   0.6010   0.6079   0.6105   0.6176   0.6210   0.6227   0.6353
     0.6412   0.6436   0.7206   0.7231   0.7251   0.7258   0.7306   0.7328
     0.7376   0.7393   0.7405   0.7418   0.7438   0.7450   0.7463   0.7476
     0.7483   0.7486   0.7497   0.7506   0.7523   0.7526   0.7538   0.7546
     0.7554   0.7569   0.7577   0.7589   0.7600   0.7618   0.7627   0.7645
     0.7665   0.7679   0.7693   0.7709   0.7727   0.7745   0.7768   0.7784
     0.7794   0.7811   0.7822   0.7842   0.7868   0.7905   0.7928   0.7943
     0.7968   0.7990   0.8010   0.8020   0.8066   0.8096   0.8151   0.8170
     0.8204   0.8223   0.8237   0.8253   0.8268   0.8291   0.8330   0.8397
     0.8424   0.8446   0.8463   0.8474   0.8504   0.8558   0.8590   0.8616
     0.8643   0.8663   0.8686   0.8690   0.8738   0.8755   0.8768   0.8854
     0.8891   0.8919   0.9002   0.9028   0.9065   0.9072   0.9084   0.9101
     0.9123   0.9149   0.9162   0.9183   0.9211   0.9234   0.9274   0.9313
     0.9328   0.9364   0.9395   0.9515   0.9787   0.9815   1.0022   1.0119
     5.1663   5.4957   5.5343   5.6738   5.7524   5.7978   5.8053   5.8356
     5.8592   5.8735   5.8841   5.9010   5.9504   5.9637   6.1102   6.1371
     6.1634   6.1942   6.1962   6.2289   6.2341   6.2661   6.2815   6.2928
     6.3047   6.3210   6.3467   6.3672   6.3797   6.3860   6.3987   6.4097
     6.4155   6.4172   6.4323   6.4465   6.4870   6.4970   6.5044   6.5252
     6.5502   6.5549   6.5616   6.5676   6.5737   6.5928   6.5938   6.6057
     6.6230   6.6454   6.6889   6.7096   6.7214   6.7310   6.7401   6.7423
     6.7466   6.7547   6.7601   6.7697   6.7744   6.7870   6.7919   6.7961
     6.8100   6.8276   6.8304   6.8385   6.8491   6.8724   6.8946   6.9116
     6.9170   6.9303   6.9486   6.9525   6.9762

     occupation numbers 
     1.0000   1.0000   1.0000   1.0000   1.0000   1.0000   1.0000   1.0000
     1.0000   1.0000   1.0000   1.0000   1.0000   1.0000   1.0000   1.0000
     1.0000   1.0000   1.0000   1.0000   1.0000   1.0000   1.0000   1.0000
     1.0000   1.0000   1.0000   1.0000   1.0000   1.0000   1.0000   1.0000
     1.0000   1.0000   1.0000   1.0000   1.0000   1.0000   1.0000   1.0000
     1.0000   1.0000   1.0000   1.0000   1.0000   1.0000   1.0000   1.0000
     1.0000   1.0000   1.0000   1.0000   1.0000   1.0000   1.0000   1.0000
     1.0000   1.0000   1.0000   1.0000   1.0000   1.0000   1.0000   1.0000
     1.0000   1.0000   1.0000   1.0000   1.0000   1.0000   1.0000   1.0000
     1.0000   1.0000   1.0000   1.0000   1.0000   1.0000   1.0000   1.0000
     1.0000   1.0000   1.0000   1.0000   1.0000   1.0000   1.0000   1.0000
     1.0000   1.0000   1.0000   1.0000   1.0000   1.0000   1.0000   1.0000
     1.0000   1.0000   1.0000   1.0000   1.0000   1.0000   1.0000   1.0000
     1.0000   1.0000   1.0000   1.0000   1.0000   1.0000   1.0000   1.0000
     1.0000   1.0000   1.0000   1.0000   1.0000   1.0000   1.0000   1.0000
     1.0000   1.0000   1.0000   1.0000   1.0000   1.0000   1.0000   1.0000
     1.0000   1.0000   1.0000   1.0000   1.0000   1.0000   1.0000   1.0000
     1.0000   1.0000   1.0000   1.0000   1.0000   1.0000   1.0000   1.0000
     1.0000   1.0000   1.0000   1.0000   1.0000   1.0000   1.0000   1.0000
     1.0000   1.0000   1.0000   1.0000   1.0000   1.0000   1.0000   1.0000
     1.0000   1.0000   1.0000   1.0000   1.0000   1.0000   1.0000   1.0000
     1.0000   1.0000   1.0000   1.0000   1.0000   1.0000   1.0000   1.0000
     1.0000   1.0000   1.0000   1.0000   1.0000   1.0000   1.0000   1.0000
     1.0000   1.0000   1.0000   1.0000   1.0000   1.0000   1.0000   1.0000
     1.0000   1.0000   1.0000   1.0000   1.0000   1.0000   1.0000   1.0000
     1.0000   1.0000   1.0000   1.0000   1.0000   1.0000   1.0000   1.0000
     1.0000   1.0000   1.0000   1.0000   1.0000   1.0000   1.0000   1.0000
     1.0000   1.0000   1.0000   1.0000   1.0000   1.0000   1.0000   1.0000
     1.0000   1.0000   1.0000   1.0000   1.0000   1.0000   1.0000   1.0000
     1.0000   1.0000   1.0000   1.0000   1.0000   1.0000   1.0000   1.0000
     1.0044   1.0045   1.0058   1.0059   1.0098   1.0101   1.0130   1.0143
     1.0147   1.0156   1.0162   1.0184   1.0205   1.0210   1.0216   1.0221
     1.0232   1.0260   1.0268   1.0274   1.0299   1.0300   1.0308   1.0317
     1.0364   1.0378   1.0424   1.0450   1.0468   1.0482   1.0549   1.0558
     1.0595   1.0610   1.0633   1.0642   1.0665   1.0676   1.0681   1.0720
     1.0737   1.0743   1.0822   1.0818   1.0815   1.0814   1.0804   1.0800
     1.0787   1.0783   1.0779   1.0775   1.0769   1.0765   1.0760   1.0756
     1.0753   1.0752   1.0748   1.0744   1.0737   1.0736   1.0731   1.0728
     1.0724   1.0718   1.0714   1.0708   1.0703   1.0694   1.0690   1.0680
     1.0669   1.0661   1.0653   1.0644   1.0633   1.0621   1.0607   1.0596
     1.0589   1.0577   1.0569   1.0554   1.0534   1.0505   1.0486   1.0473
     1.0451   1.0431   1.0412   1.0403   1.0358   1.0326   1.0266   1.0245
     1.0207   1.0183   1.0167   1.0147   1.0128   1.0098   1.0047   0.9956
     0.9916   0.9884   0.9858   0.9841   0.9796   0.9711   0.9658   0.9614
     0.9567   0.9533   0.9493   0.9485   0.9399   0.9367   0.9343   0.9177
     0.9105   0.9047   0.8875   0.8819   0.8738   0.8723   0.8696   0.8658
     0.8609   0.8550   0.8519   0.8472   0.8406   0.8352   0.8258   0.8163
     0.8128   0.8040   0.7964   0.7659   0.6938   0.6864   0.6294   0.6027
     0.0000   0.0000   0.0000   0.0000   0.0000   0.0000   0.0000   0.0000
     0.0000   0.0000   0.0000   0.0000   0.0000   0.0000   0.0000   0.0000
     0.0000   0.0000   0.0000   0.0000   0.0000   0.0000   0.0000   0.0000
     0.0000   0.0000   0.0000   0.0000   0.0000   0.0000   0.0000   0.0000
     0.0000   0.0000   0.0000   0.0000   0.0000   0.0000   0.0000   0.0000
     0.0000   0.0000   0.0000   0.0000   0.0000   0.0000   0.0000   0.0000
     0.0000   0.0000   0.0000   0.0000   0.0000   0.0000   0.0000   0.0000
     0.0000   0.0000   0.0000   0.0000   0.0000   0.0000   0.0000   0.0000
     0.0000   0.0000   0.0000   0.0000   0.0000   0.0000   0.0000   0.0000
     0.0000   0.0000   0.0000   0.0000   0.0000

     the Fermi energy is     1.0871 ev

!    total energy              =   -6189.17249189 Ry
     Harris-Foulkes estimate   =   -6189.17249231 Ry
     estimated scf accuracy    <       0.00000052 Ry

     The total energy is the sum of the following terms:

     one-electron contribution =    -566.92805762 Ry
     hartree contribution      =     531.24845603 Ry
     xc contribution           =   -3777.58904341 Ry
     ewald contribution        =   -2376.37731196 Ry
     smearing contrib. (-TS)   =       0.47346507 Ry

     convergence has been achieved in  79 iterations

     Writing output data file aiida.save
 
     init_run     :    165.68s CPU     96.56s WALL (       1 calls)
     electrons    :  19151.77s CPU  10819.13s WALL (       1 calls)

     Called by init_run:
     wfcinit      :    142.35s CPU     76.22s WALL (       1 calls)
     wfcinit:atom :      0.67s CPU      0.41s WALL (       3 calls)
     wfcinit:wfcr :    136.36s CPU     70.77s WALL (       3 calls)
     potinit      :      3.64s CPU      2.94s WALL (       1 calls)

     Called by electrons:
     c_bands      :  15407.00s CPU   8738.44s WALL (      80 calls)
     sum_band     :   3095.38s CPU   1665.34s WALL (      80 calls)
     v_of_rho     :    156.07s CPU    104.77s WALL (      80 calls)
     v_h          :      8.32s CPU      4.32s WALL (      80 calls)
     v_xc         :    147.74s CPU    100.45s WALL (      80 calls)
     newd         :    436.30s CPU    268.39s WALL (      80 calls)
     mix_rho      :     30.23s CPU     18.70s WALL (      80 calls)

     Called by c_bands:
     init_us_2    :    146.74s CPU     84.20s WALL (     483 calls)
     cegterg      :  14429.32s CPU   7787.36s WALL (     240 calls)

     Called by sum_band:
     sum_band:bec :     35.25s CPU     29.67s WALL (     240 calls)
     addusdens    :    485.03s CPU    309.97s WALL (      80 calls)

     Called by *egterg:
     h_psi        :   9636.96s CPU   4983.80s WALL (     703 calls)
     s_psi        :   1672.65s CPU    892.82s WALL (     703 calls)
     g_psi        :     29.63s CPU     15.43s WALL (     460 calls)
     cdiaghg      :    683.03s CPU    410.12s WALL (     697 calls)
     cegterg:over :    950.53s CPU    503.45s WALL (     460 calls)
     cegterg:upda :    644.10s CPU    362.45s WALL (     460 calls)
     cegterg:last :    427.33s CPU    231.96s WALL (     240 calls)
     cdiaghg:chol :     71.71s CPU     41.78s WALL (     697 calls)
     cdiaghg:inve :     17.32s CPU      9.54s WALL (     697 calls)
     cdiaghg:para :    113.66s CPU     74.04s WALL (    1394 calls)

     Called by h_psi:
     h_psi:pot    :   9599.02s CPU   4963.23s WALL (     703 calls)
     h_psi:calbec :   1720.37s CPU    881.81s WALL (     703 calls)
     vloc_psi     :   6161.95s CPU   3167.17s WALL (     703 calls)
     vloc_psi:tg_ :      5.96s CPU      3.99s WALL (     703 calls)
     add_vuspsi   :   1716.64s CPU    914.22s WALL (     703 calls)

     General routines
     calbec       :   2536.44s CPU   1300.15s WALL (     943 calls)
     fft          :    107.99s CPU     56.20s WALL (    1280 calls)
     ffts         :      4.92s CPU      2.79s WALL (     160 calls)
     fftw         :   6946.82s CPU   3567.08s WALL (  142412 calls)
     interpolate  :     21.96s CPU     12.53s WALL (     160 calls)
     davcio       :      0.00s CPU      4.43s WALL (       3 calls)
 
     Parallel routines
     fft_scatter  :   2231.25s CPU   1172.06s WALL (  143852 calls)
     ALLTOALL     :    424.97s CPU    225.70s WALL (  142412 calls)
 
     PWSCF        :     5h22m CPU        3h 2m WALL

 
   This run was terminated on:  20: 4: 6   1Jun2017            

=------------------------------------------------------------------------------=
   JOB DONE.
=------------------------------------------------------------------------------=
