SIRIUS 6.5.1, git hash: 03934cb413e35367d189966c763df8be178f72e3

     Program PWSCF v.6.5 starts on 10Mar2020 at 15:17:55 

     This program is part of the open-source Quantum ESPRESSO suite
     for quantum simulation of materials; please cite
         "P. Giannozzi et al., J. Phys.:Condens. Matter 21 395502 (2009);
         "P. Giannozzi et al., J. Phys.:Condens. Matter 29 465901 (2017);
          URL http://www.quantum-espresso.org", 
     in publications or presentations arising from this work. More details at
     http://www.quantum-espresso.org/quote

     Parallel version (MPI & OpenMP), running on     300 processor cores
     Number of MPI processes:                25
     Threads/MPI process:                    12

     MPI processes distributed on    25 nodes
     R & G space division:  proc/nbgrp/npool/nimage =      25
     Reading input from pw.in
     Message from routine read_cards :
     DEPRECATED: no units specified in CELL_PARAMETERS card
Warning: card 1 1 1  0 0 0 ignored

     Current dimensions of program PWSCF are:
     Max number of different atomic species (ntypx) = 10
     Max number of k-points (npk) =  40000
     Max angular momentum in pseudopotentials (lmaxx) =  3
     Message from routine cell_base_init:
     DEPRECATED: use true lattice parameter, not A to a.u. conversion factor

     gamma-point specific algorithms are used

     Subspace diagonalization in iterative solution of the eigenvalue problem:
     one sub-group per band group will be used
     scalapack distributed-memory algorithm (size of sub-group:  5*  5 procs)

     Message from routine setup:
     using ibrav=0 with symmetry is DISCOURAGED, use correct ibrav instead
 
     Parallelization info
     --------------------
     sticks:   dense  smooth     PW     G-vecs:    dense   smooth      PW
     Min        3216     857    213               686670    94557   11831
     Max        3220     858    216               686674    94570   11840
     Sum       80461   21449   5377             17166821  2364101  295907
 


     bravais-lattice index     =            0
     lattice parameter (alat)  =       1.0000  a.u.
     unit-cell volume          =   69174.1805 (a.u.)^3
     number of atoms/cell      =          512
     number of atomic types    =            2
     number of electrons       =      2058.00
     number of Kohn-Sham states=         1235
     kinetic-energy cutoff     =      40.0000  Ry
     charge density cutoff     =     600.0000  Ry
     convergence threshold     =      1.0E-10
     mixing beta               =       0.7000
     number of iterations used =            8  plain     mixing
     Exchange-correlation= SLA  PZ   NOGX NOGC
                           (   1   1   0   0   0   0   0)

     celldm(1)=   1.000000  celldm(2)=   0.000000  celldm(3)=   0.000000
     celldm(4)=   0.000000  celldm(5)=   0.000000  celldm(6)=   0.000000

     crystal axes: (cart. coord. in units of alat)
               a(1) = (  41.050143   0.000000   0.000000 )  
               a(2) = (   0.000000  41.050143   0.000000 )  
               a(3) = (   0.000000   0.000000  41.050143 )  

     reciprocal axes: (cart. coord. in units 2 pi/alat)
               b(1) = (  0.024360  0.000000  0.000000 )  
               b(2) = (  0.000000  0.024360  0.000000 )  
               b(3) = (  0.000000  0.000000  0.024360 )  


     PseudoPot. # 1 for Ge read from file:
     ./ge_lda_v1.uspp.F.UPF
     MD5 check sum: 575f587c0f86b3eee266efe92ef02c15
     Pseudo is Ultrasoft + core correction, Zval = 14.0
     Generated by new atomic code, or converted to UPF format
     Using radial grid of  873 points,  6 beta functions with: 
                l(1) =   0
                l(2) =   0
                l(3) =   1
                l(4) =   1
                l(5) =   2
                l(6) =   2
     Q(r) pseudized with  8 coefficients,  rinner =    1.400   1.400   1.400
                                                       1.400   1.400

     PseudoPot. # 2 for Si read from file:
     ./si_lda_v1.uspp.F.UPF
     MD5 check sum: ca10e49b2835512e91ee5100d37237e0
     Pseudo is Ultrasoft + core correction, Zval =  4.0
     Generated by new atomic code, or converted to UPF format
     Using radial grid of  899 points,  6 beta functions with: 
                l(1) =   0
                l(2) =   0
                l(3) =   1
                l(4) =   1
                l(5) =   2
                l(6) =   2
     Q(r) pseudized with  8 coefficients,  rinner =    0.900   0.900   0.900
                                                       0.900   0.900

     atomic species   valence    mass     pseudopotential
        Ge            14.00    72.61000     Ge( 1.00)
        Si             4.00    28.08550     Si( 1.00)

     24 Sym. Ops. (no inversion) found



   Cartesian axes

     site n.     atom                  positions (alat units)
         1           Ge  tau(   1) = (   0.0000000   0.0000000   0.0000000  )
         2           Si  tau(   2) = (  20.5250715  20.5250715  20.5250715  )
         3           Si  tau(   3) = (  20.5250715  20.5250715  30.7876073  )
         4           Si  tau(   4) = (  20.5250715  20.5250715   0.0000000  )
         5           Si  tau(   5) = (  20.5250715  20.5250715  10.2625357  )
         6           Si  tau(   6) = (  20.5250715  30.7876073  20.5250715  )
         7           Si  tau(   7) = (  20.5250715  30.7876073  30.7876073  )
         8           Si  tau(   8) = (  20.5250715  30.7876073   0.0000000  )
         9           Si  tau(   9) = (  20.5250715  30.7876073  10.2625357  )
        10           Si  tau(  10) = (  20.5250715   0.0000000  20.5250715  )
        11           Si  tau(  11) = (  20.5250715   0.0000000  30.7876073  )
        12           Si  tau(  12) = (  20.5250715   0.0000000   0.0000000  )
        13           Si  tau(  13) = (  20.5250715   0.0000000  10.2625357  )
        14           Si  tau(  14) = (  20.5250715  10.2625357  20.5250715  )
        15           Si  tau(  15) = (  20.5250715  10.2625357  30.7876073  )
        16           Si  tau(  16) = (  20.5250715  10.2625357   0.0000000  )
        17           Si  tau(  17) = (  20.5250715  10.2625357  10.2625357  )
        18           Si  tau(  18) = (  30.7876073  20.5250715  20.5250715  )
        19           Si  tau(  19) = (  30.7876073  20.5250715  30.7876073  )
        20           Si  tau(  20) = (  30.7876073  20.5250715   0.0000000  )
        21           Si  tau(  21) = (  30.7876073  20.5250715  10.2625357  )
        22           Si  tau(  22) = (  30.7876073  30.7876073  20.5250715  )
        23           Si  tau(  23) = (  30.7876073  30.7876073  30.7876073  )
        24           Si  tau(  24) = (  30.7876073  30.7876073   0.0000000  )
        25           Si  tau(  25) = (  30.7876073  30.7876073  10.2625357  )
        26           Si  tau(  26) = (  30.7876073   0.0000000  20.5250715  )
        27           Si  tau(  27) = (  30.7876073   0.0000000  30.7876073  )
        28           Si  tau(  28) = (  30.7876073   0.0000000   0.0000000  )
        29           Si  tau(  29) = (  30.7876073   0.0000000  10.2625357  )
        30           Si  tau(  30) = (  30.7876073  10.2625357  20.5250715  )
        31           Si  tau(  31) = (  30.7876073  10.2625357  30.7876073  )
        32           Si  tau(  32) = (  30.7876073  10.2625357   0.0000000  )
        33           Si  tau(  33) = (  30.7876073  10.2625357  10.2625357  )
        34           Si  tau(  34) = (   0.0000000  20.5250715  20.5250715  )
        35           Si  tau(  35) = (   0.0000000  20.5250715  30.7876073  )
        36           Si  tau(  36) = (   0.0000000  20.5250715   0.0000000  )
        37           Si  tau(  37) = (   0.0000000  20.5250715  10.2625357  )
        38           Si  tau(  38) = (   0.0000000  30.7876073  20.5250715  )
        39           Si  tau(  39) = (   0.0000000  30.7876073  30.7876073  )
        40           Si  tau(  40) = (   0.0000000  30.7876073   0.0000000  )
        41           Si  tau(  41) = (   0.0000000  30.7876073  10.2625357  )
        42           Si  tau(  42) = (   0.0000000   0.0000000  20.5250715  )
        43           Si  tau(  43) = (   0.0000000   0.0000000  30.7876073  )
        44           Si  tau(  44) = (   0.0000000   0.0000000  10.2625357  )
        45           Si  tau(  45) = (   0.0000000  10.2625357  20.5250715  )
        46           Si  tau(  46) = (   0.0000000  10.2625357  30.7876073  )
        47           Si  tau(  47) = (   0.0000000  10.2625357   0.0000000  )
        48           Si  tau(  48) = (   0.0000000  10.2625357  10.2625357  )
        49           Si  tau(  49) = (  10.2625357  20.5250715  20.5250715  )
        50           Si  tau(  50) = (  10.2625357  20.5250715  30.7876073  )
        51           Si  tau(  51) = (  10.2625357  20.5250715   0.0000000  )
        52           Si  tau(  52) = (  10.2625357  20.5250715  10.2625357  )
        53           Si  tau(  53) = (  10.2625357  30.7876073  20.5250715  )
        54           Si  tau(  54) = (  10.2625357  30.7876073  30.7876073  )
        55           Si  tau(  55) = (  10.2625357  30.7876073   0.0000000  )
        56           Si  tau(  56) = (  10.2625357  30.7876073  10.2625357  )
        57           Si  tau(  57) = (  10.2625357   0.0000000  20.5250715  )
        58           Si  tau(  58) = (  10.2625357   0.0000000  30.7876073  )
        59           Si  tau(  59) = (  10.2625357   0.0000000   0.0000000  )
        60           Si  tau(  60) = (  10.2625357   0.0000000  10.2625357  )
        61           Si  tau(  61) = (  10.2625357  10.2625357  20.5250715  )
        62           Si  tau(  62) = (  10.2625357  10.2625357  30.7876073  )
        63           Si  tau(  63) = (  10.2625357  10.2625357   0.0000000  )
        64           Si  tau(  64) = (  10.2625357  10.2625357  10.2625357  )
        65           Si  tau(  65) = (  20.5250715  25.6563394  25.6563394  )
        66           Si  tau(  66) = (  20.5250715  25.6563394  35.9188751  )
        67           Si  tau(  67) = (  20.5250715  25.6563394   5.1312679  )
        68           Si  tau(  68) = (  20.5250715  25.6563394  15.3938036  )
        69           Si  tau(  69) = (  20.5250715  35.9188751  25.6563394  )
        70           Si  tau(  70) = (  20.5250715  35.9188751  35.9188751  )
        71           Si  tau(  71) = (  20.5250715  35.9188751   5.1312679  )
        72           Si  tau(  72) = (  20.5250715  35.9188751  15.3938036  )
        73           Si  tau(  73) = (  20.5250715   5.1312679  25.6563394  )
        74           Si  tau(  74) = (  20.5250715   5.1312679  35.9188751  )
        75           Si  tau(  75) = (  20.5250715   5.1312679   5.1312679  )
        76           Si  tau(  76) = (  20.5250715   5.1312679  15.3938036  )
        77           Si  tau(  77) = (  20.5250715  15.3938036  25.6563394  )
        78           Si  tau(  78) = (  20.5250715  15.3938036  35.9188751  )
        79           Si  tau(  79) = (  20.5250715  15.3938036   5.1312679  )
        80           Si  tau(  80) = (  20.5250715  15.3938036  15.3938036  )
        81           Si  tau(  81) = (  30.7876073  25.6563394  25.6563394  )
        82           Si  tau(  82) = (  30.7876073  25.6563394  35.9188751  )
        83           Si  tau(  83) = (  30.7876073  25.6563394   5.1312679  )
        84           Si  tau(  84) = (  30.7876073  25.6563394  15.3938036  )
        85           Si  tau(  85) = (  30.7876073  35.9188751  25.6563394  )
        86           Si  tau(  86) = (  30.7876073  35.9188751  35.9188751  )
        87           Si  tau(  87) = (  30.7876073  35.9188751   5.1312679  )
        88           Si  tau(  88) = (  30.7876073  35.9188751  15.3938036  )
        89           Si  tau(  89) = (  30.7876073   5.1312679  25.6563394  )
        90           Si  tau(  90) = (  30.7876073   5.1312679  35.9188751  )
        91           Si  tau(  91) = (  30.7876073   5.1312679   5.1312679  )
        92           Si  tau(  92) = (  30.7876073   5.1312679  15.3938036  )
        93           Si  tau(  93) = (  30.7876073  15.3938036  25.6563394  )
        94           Si  tau(  94) = (  30.7876073  15.3938036  35.9188751  )
        95           Si  tau(  95) = (  30.7876073  15.3938036   5.1312679  )
        96           Si  tau(  96) = (  30.7876073  15.3938036  15.3938036  )
        97           Si  tau(  97) = (   0.0000000  25.6563394  25.6563394  )
        98           Si  tau(  98) = (   0.0000000  25.6563394  35.9188751  )
        99           Si  tau(  99) = (   0.0000000  25.6563394   5.1312679  )
       100           Si  tau( 100) = (   0.0000000  25.6563394  15.3938036  )
       101           Si  tau( 101) = (   0.0000000  35.9188751  25.6563394  )
       102           Si  tau( 102) = (   0.0000000  35.9188751  35.9188751  )
       103           Si  tau( 103) = (   0.0000000  35.9188751   5.1312679  )
       104           Si  tau( 104) = (   0.0000000  35.9188751  15.3938036  )
       105           Si  tau( 105) = (   0.0000000   5.1312679  25.6563394  )
       106           Si  tau( 106) = (   0.0000000   5.1312679  35.9188751  )
       107           Si  tau( 107) = (   0.0000000   5.1312679   5.1312679  )
       108           Si  tau( 108) = (   0.0000000   5.1312679  15.3938036  )
       109           Si  tau( 109) = (   0.0000000  15.3938036  25.6563394  )
       110           Si  tau( 110) = (   0.0000000  15.3938036  35.9188751  )
       111           Si  tau( 111) = (   0.0000000  15.3938036   5.1312679  )
       112           Si  tau( 112) = (   0.0000000  15.3938036  15.3938036  )
       113           Si  tau( 113) = (  10.2625357  25.6563394  25.6563394  )
       114           Si  tau( 114) = (  10.2625357  25.6563394  35.9188751  )
       115           Si  tau( 115) = (  10.2625357  25.6563394   5.1312679  )
       116           Si  tau( 116) = (  10.2625357  25.6563394  15.3938036  )
       117           Si  tau( 117) = (  10.2625357  35.9188751  25.6563394  )
       118           Si  tau( 118) = (  10.2625357  35.9188751  35.9188751  )
       119           Si  tau( 119) = (  10.2625357  35.9188751   5.1312679  )
       120           Si  tau( 120) = (  10.2625357  35.9188751  15.3938036  )
       121           Si  tau( 121) = (  10.2625357   5.1312679  25.6563394  )
       122           Si  tau( 122) = (  10.2625357   5.1312679  35.9188751  )
       123           Si  tau( 123) = (  10.2625357   5.1312679   5.1312679  )
       124           Si  tau( 124) = (  10.2625357   5.1312679  15.3938036  )
       125           Si  tau( 125) = (  10.2625357  15.3938036  25.6563394  )
       126           Si  tau( 126) = (  10.2625357  15.3938036  35.9188751  )
       127           Si  tau( 127) = (  10.2625357  15.3938036   5.1312679  )
       128           Si  tau( 128) = (  10.2625357  15.3938036  15.3938036  )
       129           Si  tau( 129) = (  25.6563394  20.5250715  25.6563394  )
       130           Si  tau( 130) = (  25.6563394  20.5250715  35.9188751  )
       131           Si  tau( 131) = (  25.6563394  20.5250715   5.1312679  )
       132           Si  tau( 132) = (  25.6563394  20.5250715  15.3938036  )
       133           Si  tau( 133) = (  25.6563394  30.7876073  25.6563394  )
       134           Si  tau( 134) = (  25.6563394  30.7876073  35.9188751  )
       135           Si  tau( 135) = (  25.6563394  30.7876073   5.1312679  )
       136           Si  tau( 136) = (  25.6563394  30.7876073  15.3938036  )
       137           Si  tau( 137) = (  25.6563394   0.0000000  25.6563394  )
       138           Si  tau( 138) = (  25.6563394   0.0000000  35.9188751  )
       139           Si  tau( 139) = (  25.6563394   0.0000000   5.1312679  )
       140           Si  tau( 140) = (  25.6563394   0.0000000  15.3938036  )
       141           Si  tau( 141) = (  25.6563394  10.2625357  25.6563394  )
       142           Si  tau( 142) = (  25.6563394  10.2625357  35.9188751  )
       143           Si  tau( 143) = (  25.6563394  10.2625357   5.1312679  )
       144           Si  tau( 144) = (  25.6563394  10.2625357  15.3938036  )
       145           Si  tau( 145) = (  35.9188751  20.5250715  25.6563394  )
       146           Si  tau( 146) = (  35.9188751  20.5250715  35.9188751  )
       147           Si  tau( 147) = (  35.9188751  20.5250715   5.1312679  )
       148           Si  tau( 148) = (  35.9188751  20.5250715  15.3938036  )
       149           Si  tau( 149) = (  35.9188751  30.7876073  25.6563394  )
       150           Si  tau( 150) = (  35.9188751  30.7876073  35.9188751  )
       151           Si  tau( 151) = (  35.9188751  30.7876073   5.1312679  )
       152           Si  tau( 152) = (  35.9188751  30.7876073  15.3938036  )
       153           Si  tau( 153) = (  35.9188751   0.0000000  25.6563394  )
       154           Si  tau( 154) = (  35.9188751   0.0000000  35.9188751  )
       155           Si  tau( 155) = (  35.9188751   0.0000000   5.1312679  )
       156           Si  tau( 156) = (  35.9188751   0.0000000  15.3938036  )
       157           Si  tau( 157) = (  35.9188751  10.2625357  25.6563394  )
       158           Si  tau( 158) = (  35.9188751  10.2625357  35.9188751  )
       159           Si  tau( 159) = (  35.9188751  10.2625357   5.1312679  )
       160           Si  tau( 160) = (  35.9188751  10.2625357  15.3938036  )
       161           Si  tau( 161) = (   5.1312679  20.5250715  25.6563394  )
       162           Si  tau( 162) = (   5.1312679  20.5250715  35.9188751  )
       163           Si  tau( 163) = (   5.1312679  20.5250715   5.1312679  )
       164           Si  tau( 164) = (   5.1312679  20.5250715  15.3938036  )
       165           Si  tau( 165) = (   5.1312679  30.7876073  25.6563394  )
       166           Si  tau( 166) = (   5.1312679  30.7876073  35.9188751  )
       167           Si  tau( 167) = (   5.1312679  30.7876073   5.1312679  )
       168           Si  tau( 168) = (   5.1312679  30.7876073  15.3938036  )
       169           Si  tau( 169) = (   5.1312679   0.0000000  25.6563394  )
       170           Si  tau( 170) = (   5.1312679   0.0000000  35.9188751  )
       171           Si  tau( 171) = (   5.1312679   0.0000000   5.1312679  )
       172           Si  tau( 172) = (   5.1312679   0.0000000  15.3938036  )
       173           Si  tau( 173) = (   5.1312679  10.2625357  25.6563394  )
       174           Si  tau( 174) = (   5.1312679  10.2625357  35.9188751  )
       175           Si  tau( 175) = (   5.1312679  10.2625357   5.1312679  )
       176           Si  tau( 176) = (   5.1312679  10.2625357  15.3938036  )
       177           Si  tau( 177) = (  15.3938036  20.5250715  25.6563394  )
       178           Si  tau( 178) = (  15.3938036  20.5250715  35.9188751  )
       179           Si  tau( 179) = (  15.3938036  20.5250715   5.1312679  )
       180           Si  tau( 180) = (  15.3938036  20.5250715  15.3938036  )
       181           Si  tau( 181) = (  15.3938036  30.7876073  25.6563394  )
       182           Si  tau( 182) = (  15.3938036  30.7876073  35.9188751  )
       183           Si  tau( 183) = (  15.3938036  30.7876073   5.1312679  )
       184           Si  tau( 184) = (  15.3938036  30.7876073  15.3938036  )
       185           Si  tau( 185) = (  15.3938036   0.0000000  25.6563394  )
       186           Si  tau( 186) = (  15.3938036   0.0000000  35.9188751  )
       187           Si  tau( 187) = (  15.3938036   0.0000000   5.1312679  )
       188           Si  tau( 188) = (  15.3938036   0.0000000  15.3938036  )
       189           Si  tau( 189) = (  15.3938036  10.2625357  25.6563394  )
       190           Si  tau( 190) = (  15.3938036  10.2625357  35.9188751  )
       191           Si  tau( 191) = (  15.3938036  10.2625357   5.1312679  )
       192           Si  tau( 192) = (  15.3938036  10.2625357  15.3938036  )
       193           Si  tau( 193) = (  25.6563394  25.6563394  20.5250715  )
       194           Si  tau( 194) = (  25.6563394  25.6563394  30.7876073  )
       195           Si  tau( 195) = (  25.6563394  25.6563394   0.0000000  )
       196           Si  tau( 196) = (  25.6563394  25.6563394  10.2625357  )
       197           Si  tau( 197) = (  25.6563394  35.9188751  20.5250715  )
       198           Si  tau( 198) = (  25.6563394  35.9188751  30.7876073  )
       199           Si  tau( 199) = (  25.6563394  35.9188751   0.0000000  )
       200           Si  tau( 200) = (  25.6563394  35.9188751  10.2625357  )
       201           Si  tau( 201) = (  25.6563394   5.1312679  20.5250715  )
       202           Si  tau( 202) = (  25.6563394   5.1312679  30.7876073  )
       203           Si  tau( 203) = (  25.6563394   5.1312679   0.0000000  )
       204           Si  tau( 204) = (  25.6563394   5.1312679  10.2625357  )
       205           Si  tau( 205) = (  25.6563394  15.3938036  20.5250715  )
       206           Si  tau( 206) = (  25.6563394  15.3938036  30.7876073  )
       207           Si  tau( 207) = (  25.6563394  15.3938036   0.0000000  )
       208           Si  tau( 208) = (  25.6563394  15.3938036  10.2625357  )
       209           Si  tau( 209) = (  35.9188751  25.6563394  20.5250715  )
       210           Si  tau( 210) = (  35.9188751  25.6563394  30.7876073  )
       211           Si  tau( 211) = (  35.9188751  25.6563394   0.0000000  )
       212           Si  tau( 212) = (  35.9188751  25.6563394  10.2625357  )
       213           Si  tau( 213) = (  35.9188751  35.9188751  20.5250715  )
       214           Si  tau( 214) = (  35.9188751  35.9188751  30.7876073  )
       215           Si  tau( 215) = (  35.9188751  35.9188751   0.0000000  )
       216           Si  tau( 216) = (  35.9188751  35.9188751  10.2625357  )
       217           Si  tau( 217) = (  35.9188751   5.1312679  20.5250715  )
       218           Si  tau( 218) = (  35.9188751   5.1312679  30.7876073  )
       219           Si  tau( 219) = (  35.9188751   5.1312679   0.0000000  )
       220           Si  tau( 220) = (  35.9188751   5.1312679  10.2625357  )
       221           Si  tau( 221) = (  35.9188751  15.3938036  20.5250715  )
       222           Si  tau( 222) = (  35.9188751  15.3938036  30.7876073  )
       223           Si  tau( 223) = (  35.9188751  15.3938036   0.0000000  )
       224           Si  tau( 224) = (  35.9188751  15.3938036  10.2625357  )
       225           Si  tau( 225) = (   5.1312679  25.6563394  20.5250715  )
       226           Si  tau( 226) = (   5.1312679  25.6563394  30.7876073  )
       227           Si  tau( 227) = (   5.1312679  25.6563394   0.0000000  )
       228           Si  tau( 228) = (   5.1312679  25.6563394  10.2625357  )
       229           Si  tau( 229) = (   5.1312679  35.9188751  20.5250715  )
       230           Si  tau( 230) = (   5.1312679  35.9188751  30.7876073  )
       231           Si  tau( 231) = (   5.1312679  35.9188751   0.0000000  )
       232           Si  tau( 232) = (   5.1312679  35.9188751  10.2625357  )
       233           Si  tau( 233) = (   5.1312679   5.1312679  20.5250715  )
       234           Si  tau( 234) = (   5.1312679   5.1312679  30.7876073  )
       235           Si  tau( 235) = (   5.1312679   5.1312679   0.0000000  )
       236           Si  tau( 236) = (   5.1312679   5.1312679  10.2625357  )
       237           Si  tau( 237) = (   5.1312679  15.3938036  20.5250715  )
       238           Si  tau( 238) = (   5.1312679  15.3938036  30.7876073  )
       239           Si  tau( 239) = (   5.1312679  15.3938036   0.0000000  )
       240           Si  tau( 240) = (   5.1312679  15.3938036  10.2625357  )
       241           Si  tau( 241) = (  15.3938036  25.6563394  20.5250715  )
       242           Si  tau( 242) = (  15.3938036  25.6563394  30.7876073  )
       243           Si  tau( 243) = (  15.3938036  25.6563394   0.0000000  )
       244           Si  tau( 244) = (  15.3938036  25.6563394  10.2625357  )
       245           Si  tau( 245) = (  15.3938036  35.9188751  20.5250715  )
       246           Si  tau( 246) = (  15.3938036  35.9188751  30.7876073  )
       247           Si  tau( 247) = (  15.3938036  35.9188751   0.0000000  )
       248           Si  tau( 248) = (  15.3938036  35.9188751  10.2625357  )
       249           Si  tau( 249) = (  15.3938036   5.1312679  20.5250715  )
       250           Si  tau( 250) = (  15.3938036   5.1312679  30.7876073  )
       251           Si  tau( 251) = (  15.3938036   5.1312679   0.0000000  )
       252           Si  tau( 252) = (  15.3938036   5.1312679  10.2625357  )
       253           Si  tau( 253) = (  15.3938036  15.3938036  20.5250715  )
       254           Si  tau( 254) = (  15.3938036  15.3938036  30.7876073  )
       255           Si  tau( 255) = (  15.3938036  15.3938036   0.0000000  )
       256           Si  tau( 256) = (  15.3938036  15.3938036  10.2625357  )
       257           Si  tau( 257) = (  28.2219733  28.2219733  23.0907054  )
       258           Si  tau( 258) = (  28.2219733  28.2219733  33.3532412  )
       259           Si  tau( 259) = (  28.2219733  28.2219733   2.5656339  )
       260           Si  tau( 260) = (  28.2219733  28.2219733  12.8281697  )
       261           Si  tau( 261) = (  28.2219733  38.4845091  23.0907054  )
       262           Si  tau( 262) = (  28.2219733  38.4845091  33.3532412  )
       263           Si  tau( 263) = (  28.2219733  38.4845091   2.5656339  )
       264           Si  tau( 264) = (  28.2219733  38.4845091  12.8281697  )
       265           Si  tau( 265) = (  28.2219733   7.6969018  23.0907054  )
       266           Si  tau( 266) = (  28.2219733   7.6969018  33.3532412  )
       267           Si  tau( 267) = (  28.2219733   7.6969018   2.5656339  )
       268           Si  tau( 268) = (  28.2219733   7.6969018  12.8281697  )
       269           Si  tau( 269) = (  28.2219733  17.9594376  23.0907054  )
       270           Si  tau( 270) = (  28.2219733  17.9594376  33.3532412  )
       271           Si  tau( 271) = (  28.2219733  17.9594376   2.5656339  )
       272           Si  tau( 272) = (  28.2219733  17.9594376  12.8281697  )
       273           Si  tau( 273) = (  38.4845091  28.2219733  23.0907054  )
       274           Si  tau( 274) = (  38.4845091  28.2219733  33.3532412  )
       275           Si  tau( 275) = (  38.4845091  28.2219733   2.5656339  )
       276           Si  tau( 276) = (  38.4845091  28.2219733  12.8281697  )
       277           Si  tau( 277) = (  38.4845091  38.4845091  23.0907054  )
       278           Si  tau( 278) = (  38.4845091  38.4845091  33.3532412  )
       279           Si  tau( 279) = (  38.4845091  38.4845091   2.5656339  )
       280           Si  tau( 280) = (  38.4845091  38.4845091  12.8281697  )
       281           Si  tau( 281) = (  38.4845091   7.6969018  23.0907054  )
       282           Si  tau( 282) = (  38.4845091   7.6969018  33.3532412  )
       283           Si  tau( 283) = (  38.4845091   7.6969018   2.5656339  )
       284           Si  tau( 284) = (  38.4845091   7.6969018  12.8281697  )
       285           Si  tau( 285) = (  38.4845091  17.9594376  23.0907054  )
       286           Si  tau( 286) = (  38.4845091  17.9594376  33.3532412  )
       287           Si  tau( 287) = (  38.4845091  17.9594376   2.5656339  )
       288           Si  tau( 288) = (  38.4845091  17.9594376  12.8281697  )
       289           Si  tau( 289) = (   7.6969018  28.2219733  23.0907054  )
       290           Si  tau( 290) = (   7.6969018  28.2219733  33.3532412  )
       291           Si  tau( 291) = (   7.6969018  28.2219733   2.5656339  )
       292           Si  tau( 292) = (   7.6969018  28.2219733  12.8281697  )
       293           Si  tau( 293) = (   7.6969018  38.4845091  23.0907054  )
       294           Si  tau( 294) = (   7.6969018  38.4845091  33.3532412  )
       295           Si  tau( 295) = (   7.6969018  38.4845091   2.5656339  )
       296           Si  tau( 296) = (   7.6969018  38.4845091  12.8281697  )
       297           Si  tau( 297) = (   7.6969018   7.6969018  23.0907054  )
       298           Si  tau( 298) = (   7.6969018   7.6969018  33.3532412  )
       299           Si  tau( 299) = (   7.6969018   7.6969018   2.5656339  )
       300           Si  tau( 300) = (   7.6969018   7.6969018  12.8281697  )
       301           Si  tau( 301) = (   7.6969018  17.9594376  23.0907054  )
       302           Si  tau( 302) = (   7.6969018  17.9594376  33.3532412  )
       303           Si  tau( 303) = (   7.6969018  17.9594376   2.5656339  )
       304           Si  tau( 304) = (   7.6969018  17.9594376  12.8281697  )
       305           Si  tau( 305) = (  17.9594376  28.2219733  23.0907054  )
       306           Si  tau( 306) = (  17.9594376  28.2219733  33.3532412  )
       307           Si  tau( 307) = (  17.9594376  28.2219733   2.5656339  )
       308           Si  tau( 308) = (  17.9594376  28.2219733  12.8281697  )
       309           Si  tau( 309) = (  17.9594376  38.4845091  23.0907054  )
       310           Si  tau( 310) = (  17.9594376  38.4845091  33.3532412  )
       311           Si  tau( 311) = (  17.9594376  38.4845091   2.5656339  )
       312           Si  tau( 312) = (  17.9594376  38.4845091  12.8281697  )
       313           Si  tau( 313) = (  17.9594376   7.6969018  23.0907054  )
       314           Si  tau( 314) = (  17.9594376   7.6969018  33.3532412  )
       315           Si  tau( 315) = (  17.9594376   7.6969018   2.5656339  )
       316           Si  tau( 316) = (  17.9594376   7.6969018  12.8281697  )
       317           Si  tau( 317) = (  17.9594376  17.9594376  23.0907054  )
       318           Si  tau( 318) = (  17.9594376  17.9594376  33.3532412  )
       319           Si  tau( 319) = (  17.9594376  17.9594376   2.5656339  )
       320           Si  tau( 320) = (  17.9594376  17.9594376  12.8281697  )
       321           Si  tau( 321) = (  28.2219733  23.0907054  28.2219733  )
       322           Si  tau( 322) = (  28.2219733  23.0907054  38.4845091  )
       323           Si  tau( 323) = (  28.2219733  23.0907054   7.6969018  )
       324           Si  tau( 324) = (  28.2219733  23.0907054  17.9594376  )
       325           Si  tau( 325) = (  28.2219733  33.3532412  28.2219733  )
       326           Si  tau( 326) = (  28.2219733  33.3532412  38.4845091  )
       327           Si  tau( 327) = (  28.2219733  33.3532412   7.6969018  )
       328           Si  tau( 328) = (  28.2219733  33.3532412  17.9594376  )
       329           Si  tau( 329) = (  28.2219733   2.5656339  28.2219733  )
       330           Si  tau( 330) = (  28.2219733   2.5656339  38.4845091  )
       331           Si  tau( 331) = (  28.2219733   2.5656339   7.6969018  )
       332           Si  tau( 332) = (  28.2219733   2.5656339  17.9594376  )
       333           Si  tau( 333) = (  28.2219733  12.8281697  28.2219733  )
       334           Si  tau( 334) = (  28.2219733  12.8281697  38.4845091  )
       335           Si  tau( 335) = (  28.2219733  12.8281697   7.6969018  )
       336           Si  tau( 336) = (  28.2219733  12.8281697  17.9594376  )
       337           Si  tau( 337) = (  38.4845091  23.0907054  28.2219733  )
       338           Si  tau( 338) = (  38.4845091  23.0907054  38.4845091  )
       339           Si  tau( 339) = (  38.4845091  23.0907054   7.6969018  )
       340           Si  tau( 340) = (  38.4845091  23.0907054  17.9594376  )
       341           Si  tau( 341) = (  38.4845091  33.3532412  28.2219733  )
       342           Si  tau( 342) = (  38.4845091  33.3532412  38.4845091  )
       343           Si  tau( 343) = (  38.4845091  33.3532412   7.6969018  )
       344           Si  tau( 344) = (  38.4845091  33.3532412  17.9594376  )
       345           Si  tau( 345) = (  38.4845091   2.5656339  28.2219733  )
       346           Si  tau( 346) = (  38.4845091   2.5656339  38.4845091  )
       347           Si  tau( 347) = (  38.4845091   2.5656339   7.6969018  )
       348           Si  tau( 348) = (  38.4845091   2.5656339  17.9594376  )
       349           Si  tau( 349) = (  38.4845091  12.8281697  28.2219733  )
       350           Si  tau( 350) = (  38.4845091  12.8281697  38.4845091  )
       351           Si  tau( 351) = (  38.4845091  12.8281697   7.6969018  )
       352           Si  tau( 352) = (  38.4845091  12.8281697  17.9594376  )
       353           Si  tau( 353) = (   7.6969018  23.0907054  28.2219733  )
       354           Si  tau( 354) = (   7.6969018  23.0907054  38.4845091  )
       355           Si  tau( 355) = (   7.6969018  23.0907054   7.6969018  )
       356           Si  tau( 356) = (   7.6969018  23.0907054  17.9594376  )
       357           Si  tau( 357) = (   7.6969018  33.3532412  28.2219733  )
       358           Si  tau( 358) = (   7.6969018  33.3532412  38.4845091  )
       359           Si  tau( 359) = (   7.6969018  33.3532412   7.6969018  )
       360           Si  tau( 360) = (   7.6969018  33.3532412  17.9594376  )
       361           Si  tau( 361) = (   7.6969018   2.5656339  28.2219733  )
       362           Si  tau( 362) = (   7.6969018   2.5656339  38.4845091  )
       363           Si  tau( 363) = (   7.6969018   2.5656339   7.6969018  )
       364           Si  tau( 364) = (   7.6969018   2.5656339  17.9594376  )
       365           Si  tau( 365) = (   7.6969018  12.8281697  28.2219733  )
       366           Si  tau( 366) = (   7.6969018  12.8281697  38.4845091  )
       367           Si  tau( 367) = (   7.6969018  12.8281697   7.6969018  )
       368           Si  tau( 368) = (   7.6969018  12.8281697  17.9594376  )
       369           Si  tau( 369) = (  17.9594376  23.0907054  28.2219733  )
       370           Si  tau( 370) = (  17.9594376  23.0907054  38.4845091  )
       371           Si  tau( 371) = (  17.9594376  23.0907054   7.6969018  )
       372           Si  tau( 372) = (  17.9594376  23.0907054  17.9594376  )
       373           Si  tau( 373) = (  17.9594376  33.3532412  28.2219733  )
       374           Si  tau( 374) = (  17.9594376  33.3532412  38.4845091  )
       375           Si  tau( 375) = (  17.9594376  33.3532412   7.6969018  )
       376           Si  tau( 376) = (  17.9594376  33.3532412  17.9594376  )
       377           Si  tau( 377) = (  17.9594376   2.5656339  28.2219733  )
       378           Si  tau( 378) = (  17.9594376   2.5656339  38.4845091  )
       379           Si  tau( 379) = (  17.9594376   2.5656339   7.6969018  )
       380           Si  tau( 380) = (  17.9594376   2.5656339  17.9594376  )
       381           Si  tau( 381) = (  17.9594376  12.8281697  28.2219733  )
       382           Si  tau( 382) = (  17.9594376  12.8281697  38.4845091  )
       383           Si  tau( 383) = (  17.9594376  12.8281697   7.6969018  )
       384           Si  tau( 384) = (  17.9594376  12.8281697  17.9594376  )
       385           Si  tau( 385) = (  23.0907054  28.2219733  28.2219733  )
       386           Si  tau( 386) = (  23.0907054  28.2219733  38.4845091  )
       387           Si  tau( 387) = (  23.0907054  28.2219733   7.6969018  )
       388           Si  tau( 388) = (  23.0907054  28.2219733  17.9594376  )
       389           Si  tau( 389) = (  23.0907054  38.4845091  28.2219733  )
       390           Si  tau( 390) = (  23.0907054  38.4845091  38.4845091  )
       391           Si  tau( 391) = (  23.0907054  38.4845091   7.6969018  )
       392           Si  tau( 392) = (  23.0907054  38.4845091  17.9594376  )
       393           Si  tau( 393) = (  23.0907054   7.6969018  28.2219733  )
       394           Si  tau( 394) = (  23.0907054   7.6969018  38.4845091  )
       395           Si  tau( 395) = (  23.0907054   7.6969018   7.6969018  )
       396           Si  tau( 396) = (  23.0907054   7.6969018  17.9594376  )
       397           Si  tau( 397) = (  23.0907054  17.9594376  28.2219733  )
       398           Si  tau( 398) = (  23.0907054  17.9594376  38.4845091  )
       399           Si  tau( 399) = (  23.0907054  17.9594376   7.6969018  )
       400           Si  tau( 400) = (  23.0907054  17.9594376  17.9594376  )
       401           Si  tau( 401) = (  33.3532412  28.2219733  28.2219733  )
       402           Si  tau( 402) = (  33.3532412  28.2219733  38.4845091  )
       403           Si  tau( 403) = (  33.3532412  28.2219733   7.6969018  )
       404           Si  tau( 404) = (  33.3532412  28.2219733  17.9594376  )
       405           Si  tau( 405) = (  33.3532412  38.4845091  28.2219733  )
       406           Si  tau( 406) = (  33.3532412  38.4845091  38.4845091  )
       407           Si  tau( 407) = (  33.3532412  38.4845091   7.6969018  )
       408           Si  tau( 408) = (  33.3532412  38.4845091  17.9594376  )
       409           Si  tau( 409) = (  33.3532412   7.6969018  28.2219733  )
       410           Si  tau( 410) = (  33.3532412   7.6969018  38.4845091  )
       411           Si  tau( 411) = (  33.3532412   7.6969018   7.6969018  )
       412           Si  tau( 412) = (  33.3532412   7.6969018  17.9594376  )
       413           Si  tau( 413) = (  33.3532412  17.9594376  28.2219733  )
       414           Si  tau( 414) = (  33.3532412  17.9594376  38.4845091  )
       415           Si  tau( 415) = (  33.3532412  17.9594376   7.6969018  )
       416           Si  tau( 416) = (  33.3532412  17.9594376  17.9594376  )
       417           Si  tau( 417) = (   2.5656339  28.2219733  28.2219733  )
       418           Si  tau( 418) = (   2.5656339  28.2219733  38.4845091  )
       419           Si  tau( 419) = (   2.5656339  28.2219733   7.6969018  )
       420           Si  tau( 420) = (   2.5656339  28.2219733  17.9594376  )
       421           Si  tau( 421) = (   2.5656339  38.4845091  28.2219733  )
       422           Si  tau( 422) = (   2.5656339  38.4845091  38.4845091  )
       423           Si  tau( 423) = (   2.5656339  38.4845091   7.6969018  )
       424           Si  tau( 424) = (   2.5656339  38.4845091  17.9594376  )
       425           Si  tau( 425) = (   2.5656339   7.6969018  28.2219733  )
       426           Si  tau( 426) = (   2.5656339   7.6969018  38.4845091  )
       427           Si  tau( 427) = (   2.5656339   7.6969018   7.6969018  )
       428           Si  tau( 428) = (   2.5656339   7.6969018  17.9594376  )
       429           Si  tau( 429) = (   2.5656339  17.9594376  28.2219733  )
       430           Si  tau( 430) = (   2.5656339  17.9594376  38.4845091  )
       431           Si  tau( 431) = (   2.5656339  17.9594376   7.6969018  )
       432           Si  tau( 432) = (   2.5656339  17.9594376  17.9594376  )
       433           Si  tau( 433) = (  12.8281697  28.2219733  28.2219733  )
       434           Si  tau( 434) = (  12.8281697  28.2219733  38.4845091  )
       435           Si  tau( 435) = (  12.8281697  28.2219733   7.6969018  )
       436           Si  tau( 436) = (  12.8281697  28.2219733  17.9594376  )
       437           Si  tau( 437) = (  12.8281697  38.4845091  28.2219733  )
       438           Si  tau( 438) = (  12.8281697  38.4845091  38.4845091  )
       439           Si  tau( 439) = (  12.8281697  38.4845091   7.6969018  )
       440           Si  tau( 440) = (  12.8281697  38.4845091  17.9594376  )
       441           Si  tau( 441) = (  12.8281697   7.6969018  28.2219733  )
       442           Si  tau( 442) = (  12.8281697   7.6969018  38.4845091  )
       443           Si  tau( 443) = (  12.8281697   7.6969018   7.6969018  )
       444           Si  tau( 444) = (  12.8281697   7.6969018  17.9594376  )
       445           Si  tau( 445) = (  12.8281697  17.9594376  28.2219733  )
       446           Si  tau( 446) = (  12.8281697  17.9594376  38.4845091  )
       447           Si  tau( 447) = (  12.8281697  17.9594376   7.6969018  )
       448           Si  tau( 448) = (  12.8281697  17.9594376  17.9594376  )
       449           Si  tau( 449) = (  23.0907054  23.0907054  23.0907054  )
       450           Si  tau( 450) = (  23.0907054  23.0907054  33.3532412  )
       451           Si  tau( 451) = (  23.0907054  23.0907054   2.5656339  )
       452           Si  tau( 452) = (  23.0907054  23.0907054  12.8281697  )
       453           Si  tau( 453) = (  23.0907054  33.3532412  23.0907054  )
       454           Si  tau( 454) = (  23.0907054  33.3532412  33.3532412  )
       455           Si  tau( 455) = (  23.0907054  33.3532412   2.5656339  )
       456           Si  tau( 456) = (  23.0907054  33.3532412  12.8281697  )
       457           Si  tau( 457) = (  23.0907054   2.5656339  23.0907054  )
       458           Si  tau( 458) = (  23.0907054   2.5656339  33.3532412  )
       459           Si  tau( 459) = (  23.0907054   2.5656339   2.5656339  )
       460           Si  tau( 460) = (  23.0907054   2.5656339  12.8281697  )
       461           Si  tau( 461) = (  23.0907054  12.8281697  23.0907054  )
       462           Si  tau( 462) = (  23.0907054  12.8281697  33.3532412  )
       463           Si  tau( 463) = (  23.0907054  12.8281697   2.5656339  )
       464           Si  tau( 464) = (  23.0907054  12.8281697  12.8281697  )
       465           Si  tau( 465) = (  33.3532412  23.0907054  23.0907054  )
       466           Si  tau( 466) = (  33.3532412  23.0907054  33.3532412  )
       467           Si  tau( 467) = (  33.3532412  23.0907054   2.5656339  )
       468           Si  tau( 468) = (  33.3532412  23.0907054  12.8281697  )
       469           Si  tau( 469) = (  33.3532412  33.3532412  23.0907054  )
       470           Si  tau( 470) = (  33.3532412  33.3532412  33.3532412  )
       471           Si  tau( 471) = (  33.3532412  33.3532412   2.5656339  )
       472           Si  tau( 472) = (  33.3532412  33.3532412  12.8281697  )
       473           Si  tau( 473) = (  33.3532412   2.5656339  23.0907054  )
       474           Si  tau( 474) = (  33.3532412   2.5656339  33.3532412  )
       475           Si  tau( 475) = (  33.3532412   2.5656339   2.5656339  )
       476           Si  tau( 476) = (  33.3532412   2.5656339  12.8281697  )
       477           Si  tau( 477) = (  33.3532412  12.8281697  23.0907054  )
       478           Si  tau( 478) = (  33.3532412  12.8281697  33.3532412  )
       479           Si  tau( 479) = (  33.3532412  12.8281697   2.5656339  )
       480           Si  tau( 480) = (  33.3532412  12.8281697  12.8281697  )
       481           Si  tau( 481) = (   2.5656339  23.0907054  23.0907054  )
       482           Si  tau( 482) = (   2.5656339  23.0907054  33.3532412  )
       483           Si  tau( 483) = (   2.5656339  23.0907054   2.5656339  )
       484           Si  tau( 484) = (   2.5656339  23.0907054  12.8281697  )
       485           Si  tau( 485) = (   2.5656339  33.3532412  23.0907054  )
       486           Si  tau( 486) = (   2.5656339  33.3532412  33.3532412  )
       487           Si  tau( 487) = (   2.5656339  33.3532412   2.5656339  )
       488           Si  tau( 488) = (   2.5656339  33.3532412  12.8281697  )
       489           Si  tau( 489) = (   2.5656339   2.5656339  23.0907054  )
       490           Si  tau( 490) = (   2.5656339   2.5656339  33.3532412  )
       491           Si  tau( 491) = (   2.5656339   2.5656339   2.5656339  )
       492           Si  tau( 492) = (   2.5656339   2.5656339  12.8281697  )
       493           Si  tau( 493) = (   2.5656339  12.8281697  23.0907054  )
       494           Si  tau( 494) = (   2.5656339  12.8281697  33.3532412  )
       495           Si  tau( 495) = (   2.5656339  12.8281697   2.5656339  )
       496           Si  tau( 496) = (   2.5656339  12.8281697  12.8281697  )
       497           Si  tau( 497) = (  12.8281697  23.0907054  23.0907054  )
       498           Si  tau( 498) = (  12.8281697  23.0907054  33.3532412  )
       499           Si  tau( 499) = (  12.8281697  23.0907054   2.5656339  )
       500           Si  tau( 500) = (  12.8281697  23.0907054  12.8281697  )
       501           Si  tau( 501) = (  12.8281697  33.3532412  23.0907054  )
       502           Si  tau( 502) = (  12.8281697  33.3532412  33.3532412  )
       503           Si  tau( 503) = (  12.8281697  33.3532412   2.5656339  )
       504           Si  tau( 504) = (  12.8281697  33.3532412  12.8281697  )
       505           Si  tau( 505) = (  12.8281697   2.5656339  23.0907054  )
       506           Si  tau( 506) = (  12.8281697   2.5656339  33.3532412  )
       507           Si  tau( 507) = (  12.8281697   2.5656339   2.5656339  )
       508           Si  tau( 508) = (  12.8281697   2.5656339  12.8281697  )
       509           Si  tau( 509) = (  12.8281697  12.8281697  23.0907054  )
       510           Si  tau( 510) = (  12.8281697  12.8281697  33.3532412  )
       511           Si  tau( 511) = (  12.8281697  12.8281697   2.5656339  )
       512           Si  tau( 512) = (  12.8281697  12.8281697  12.8281697  )

     number of k points=     1  Gaussian smearing, width (Ry)=  0.0010
                       cart. coord. in units 2pi/alat
        k(    1) = (   0.0000000   0.0000000   0.0000000), wk =   2.0000000

     Dense  grid:  8583411 G-vectors     FFT dimensions: ( 324, 324, 324)

     Smooth grid:  1182051 G-vectors     FFT dimensions: ( 180, 180, 180)

     Estimated max dynamical RAM per process >       4.73 GB

     Estimated total dynamical RAM >     118.15 GB

     Initial potential from superposition of free atoms

     total cpu time spent up to now is       13.5 secs

     Self-consistent Calculation

     iteration #  1     ecut=    40.00 Ry     beta= 0.70

     Threshold (ethr) on eigenvalues was too large:
     Diagonalizing with lowered threshold


     total cpu time spent up to now is       23.4 secs

     total energy              =   -5126.82650298 Ry
     estimated scf accuracy    <      14.53670454 Ry
 
     Band energy sum           =      64.99726352 Ry

     iteration #  2     ecut=    40.00 Ry     beta= 0.70

     total cpu time spent up to now is       29.2 secs

     total energy              =   -5127.96197437 Ry
     estimated scf accuracy    <       0.54906168 Ry
 
     Band energy sum           =     124.50827142 Ry

     iteration #  3     ecut=    40.00 Ry     beta= 0.70

     total cpu time spent up to now is       46.1 secs

     total energy              =   -5128.12958429 Ry
     estimated scf accuracy    <       0.03061819 Ry
 
     Band energy sum           =     130.73313895 Ry

     iteration #  4     ecut=    40.00 Ry     beta= 0.70

     total cpu time spent up to now is       60.3 secs

     total energy              =   -5128.09301454 Ry
     estimated scf accuracy    <       0.54318232 Ry
 
     Band energy sum           =     126.98701175 Ry

     iteration #  5     ecut=    40.00 Ry     beta= 0.70

     total cpu time spent up to now is       68.6 secs

     total energy              =   -5128.14635316 Ry
     estimated scf accuracy    <       0.02682180 Ry
 
     Band energy sum           =     127.50251387 Ry

     iteration #  6     ecut=    40.00 Ry     beta= 0.70

     total cpu time spent up to now is       73.3 secs

     total energy              =   -5128.14914699 Ry
     estimated scf accuracy    <       0.00375925 Ry
 
     Band energy sum           =     127.79139001 Ry

     iteration #  7     ecut=    40.00 Ry     beta= 0.70

     total cpu time spent up to now is       78.1 secs

     total energy              =   -5128.14950338 Ry
     estimated scf accuracy    <       0.00084029 Ry
 
     Band energy sum           =     128.02579120 Ry

     iteration #  8     ecut=    40.00 Ry     beta= 0.70

     total cpu time spent up to now is       82.9 secs

     total energy              =   -5128.14958328 Ry
     estimated scf accuracy    <       0.00013007 Ry
 
     Band energy sum           =     128.20594197 Ry

     iteration #  9     ecut=    40.00 Ry     beta= 0.70

     total cpu time spent up to now is       88.0 secs

     total energy              =   -5128.14960461 Ry
     estimated scf accuracy    <       0.00001922 Ry
 
     Band energy sum           =     128.30358730 Ry

     iteration # 10     ecut=    40.00 Ry     beta= 0.70

     total cpu time spent up to now is       93.1 secs

     total energy              =   -5128.14960884 Ry
     estimated scf accuracy    <       0.00000356 Ry
 
     Band energy sum           =     128.33701312 Ry

     iteration # 11     ecut=    40.00 Ry     beta= 0.70

     total cpu time spent up to now is       98.3 secs

     total energy              =   -5128.14960951 Ry
     estimated scf accuracy    <       0.00000202 Ry
 
     Band energy sum           =     128.31947229 Ry

     iteration # 12     ecut=    40.00 Ry     beta= 0.70

     total cpu time spent up to now is      103.0 secs

     total energy              =   -5128.14960977 Ry
     estimated scf accuracy    <       0.00000078 Ry
 
     Band energy sum           =     128.32637583 Ry

     iteration # 13     ecut=    40.00 Ry     beta= 0.70

     total cpu time spent up to now is      107.4 secs

     total energy              =   -5128.14960986 Ry
     estimated scf accuracy    <       0.00000039 Ry
 
     Band energy sum           =     128.32676267 Ry

     iteration # 14     ecut=    40.00 Ry     beta= 0.70

     total cpu time spent up to now is      111.7 secs

     total energy              =   -5128.14960991 Ry
     estimated scf accuracy    <       0.00000007 Ry
 
     Band energy sum           =     128.32715557 Ry

     iteration # 15     ecut=    40.00 Ry     beta= 0.70

     total cpu time spent up to now is      115.9 secs

     total energy              =   -5128.14960991 Ry
     estimated scf accuracy    <       0.00000007 Ry
 
     Band energy sum           =     128.32664729 Ry

     iteration # 16     ecut=    40.00 Ry     beta= 0.70

     total cpu time spent up to now is      119.3 secs

     total energy              =   -5128.14960992 Ry
     estimated scf accuracy    <       0.00000001 Ry
 
     Band energy sum           =     128.32670728 Ry

     iteration # 17     ecut=    40.00 Ry     beta= 0.70

     total cpu time spent up to now is      122.2 secs

     total energy              =   -5128.14960992 Ry
     estimated scf accuracy    <          9.7E-10 Ry
 
     Band energy sum           =     128.32673154 Ry

     iteration # 18     ecut=    40.00 Ry     beta= 0.70

     total cpu time spent up to now is      125.2 secs

     total energy              =   -5128.14960992 Ry
     estimated scf accuracy    <          4.3E-10 Ry
 
     Band energy sum           =     128.32671272 Ry

     iteration # 19     ecut=    40.00 Ry     beta= 0.70

     total cpu time spent up to now is      128.2 secs

     total energy              =   -5128.14960992 Ry
     estimated scf accuracy    <          2.5E-10 Ry
 
     Band energy sum           =     128.32668466 Ry

     iteration # 20     ecut=    40.00 Ry     beta= 0.70

     total cpu time spent up to now is      131.0 secs

     End of self-consistent calculation

          k = 0.0000 0.0000 0.0000 (147954 PWs)   bands (ev):

   -18.3118 -18.3118 -18.3118 -18.2816 -18.2816  -5.9524  -5.7031  -5.6750
    -5.6750  -5.6750  -5.6749  -5.6749  -5.4554  -5.4078  -5.4078  -5.4078
    -5.4075  -5.4075  -5.4075  -5.4075  -5.4075  -5.4075  -5.4075  -5.4075
    -5.1772  -5.1482  -5.1482  -5.1482  -5.1480  -5.1479  -5.1479  -5.1479
    -4.8936  -4.8663  -4.8663  -4.8663  -4.8661  -4.8661  -4.7049  -4.6194
    -4.6194  -4.6194  -4.6184  -4.6184  -4.6184  -4.6184  -4.6184  -4.6184
    -4.6184  -4.6184  -4.6183  -4.6183  -4.6183  -4.6183  -4.6183  -4.6183
    -4.6183  -4.6183  -4.6183  -4.6182  -4.6182  -4.6182  -4.4473  -4.3916
    -4.3916  -4.3916  -4.3906  -4.3906  -4.3906  -4.3906  -4.3906  -4.3906
    -4.3906  -4.3906  -4.3906  -4.3905  -4.3905  -4.3905  -4.3905  -4.3905
    -4.3905  -4.3905  -4.3905  -4.3905  -4.3905  -4.3905  -3.9577  -3.9036
    -3.9036  -3.9036  -3.9030  -3.9030  -3.9030  -3.9030  -3.9030  -3.9030
    -3.9030  -3.9030  -3.8270  -3.7725  -3.7725  -3.7725  -3.7717  -3.7717
    -3.7717  -3.7717  -3.7717  -3.7717  -3.7717  -3.7717  -3.7717  -3.7717
    -3.7717  -3.7717  -3.7717  -3.7717  -3.7717  -3.7717  -3.7717  -3.7716
    -3.7716  -3.7716  -3.6233  -3.6112  -3.6112  -3.6112  -3.5672  -3.5545
    -3.5545  -3.5545  -3.5541  -3.5541  -3.4198  -3.3561  -3.3561  -3.3561
    -3.3547  -3.3547  -3.3547  -3.3547  -3.3547  -3.3547  -3.3547  -3.3547
    -3.3547  -3.3547  -3.3546  -3.3546  -3.3546  -3.3546  -3.3546  -3.3546
    -3.3546  -3.3546  -3.3546  -3.3546  -3.2676  -3.2293  -3.2293  -3.2293
    -3.2282  -3.2282  -3.2282  -3.2282  -3.2282  -3.2282  -3.2282  -3.2282
    -3.2282  -3.2282  -3.2282  -3.2282  -3.2281  -3.2281  -3.2281  -3.2281
    -3.2281  -3.2281  -3.2281  -3.2281  -3.1096  -3.0742  -3.0742  -3.0742
    -3.0737  -3.0737  -3.0737  -3.0737  -3.0737  -3.0736  -3.0736  -3.0736
    -3.0736  -3.0736  -3.0736  -3.0736  -3.0736  -3.0736  -3.0736  -3.0736
    -3.0736  -3.0736  -3.0736  -3.0736  -2.8640  -2.8294  -2.8294  -2.8294
    -2.8286  -2.8286  -2.8286  -2.8284  -2.8284  -2.8284  -2.8284  -2.8284
    -2.8284  -2.8284  -2.8284  -2.8284  -2.8284  -2.8284  -2.8284  -2.8284
    -2.8284  -2.8284  -2.8284  -2.8284  -2.2393  -2.2149  -2.2149  -2.2149
    -2.2147  -2.2147  -2.2147  -2.2146  -2.2146  -2.2146  -2.2145  -2.2145
    -1.8283  -1.8062  -1.8062  -1.8062  -1.8058  -1.8058  -1.7666  -1.7277
    -1.7277  -1.7277  -1.7265  -1.7265  -1.7265  -1.7265  -1.7265  -1.7265
    -1.7264  -1.7264  -1.7264  -1.7264  -1.7264  -1.7264  -1.7264  -1.7264
    -1.7264  -1.7264  -1.7264  -1.7264  -1.7264  -1.7264  -1.6529  -1.6393
    -1.6393  -1.6393  -1.6390  -1.6390  -1.6390  -1.6389  -1.6389  -1.6389
    -1.6389  -1.6389  -1.2379  -1.2183  -1.2183  -1.2183  -1.2177  -1.2177
    -1.2177  -1.2176  -1.2176  -1.2176  -1.2176  -1.2176  -0.9823  -0.9786
    -0.9786  -0.9786  -0.8216  -0.7900  -0.7900  -0.7900  -0.7875  -0.7875
    -0.7875  -0.7875  -0.7875  -0.7874  -0.7874  -0.7874  -0.7874  -0.7874
    -0.7874  -0.7874  -0.7874  -0.7874  -0.7874  -0.7874  -0.7874  -0.7873
    -0.7873  -0.7873  -0.6022  -0.5614  -0.5614  -0.5614  -0.5605  -0.5605
    -0.5605  -0.5604  -0.5604  -0.5604  -0.5604  -0.5604  -0.5603  -0.5603
    -0.5603  -0.5603  -0.5603  -0.5603  -0.5603  -0.5603  -0.5603  -0.5602
    -0.5602  -0.5602  -0.4238  -0.3853  -0.3853  -0.3853  -0.3818  -0.3817
    -0.3817  -0.3817  -0.3816  -0.3816  -0.3816  -0.3816  -0.3816  -0.3816
    -0.3816  -0.3816  -0.3816  -0.3816  -0.3816  -0.3816  -0.3816  -0.3814
    -0.3814  -0.3814  -0.3804  -0.3795  -0.3795  -0.3795  -0.3790  -0.3790
    -0.3790  -0.3789  -0.3789  -0.3789  -0.3789  -0.3789  -0.3789  -0.3789
    -0.3789  -0.3789  -0.3788  -0.3788  -0.3788  -0.3788  -0.3788  -0.3786
    -0.3786  -0.3786   0.0115   0.0435   0.0435   0.0435   0.0440   0.0440
     0.0440   0.0441   0.0441   0.0441   0.0441   0.0441   0.0441   0.0441
     0.0441   0.0441   0.0441   0.0441   0.0441   0.0441   0.0441   0.0443
     0.0443   0.0443   0.2541   0.2616   0.2616   0.2616   0.2617   0.2617
     0.5091   0.5232   0.5232   0.5232   0.5236   0.5236   0.5236   0.5238
     0.5238   0.5241   0.5241   0.5241   0.6933   0.7110   0.7110   0.7110
     0.7127   0.7129   0.7129   0.7129   0.7129   0.7129   0.7129   0.7129
     0.7129   0.7129   0.7129   0.7129   0.7129   0.7129   0.7129   0.7130
     0.7130   0.7137   0.7137   0.7137   1.6829   1.6829   1.6829   1.6833
     1.6844   1.6844   1.6844   1.6844   1.6844   1.6844   1.6845   1.6847
     1.6847   1.7116   1.7116   1.7116   1.7122   1.7122   1.7122   1.7122
     1.7122   1.7123   1.7123   1.7123   1.7123   1.7123   1.7123   1.7123
     1.7123   1.7123   1.7123   1.7124   1.7124   1.7136   1.7136   1.7136
     1.7565   1.7565   1.7565   1.7583   1.7591   1.7591   1.7591   1.7591
     1.7591   1.7591   1.7592   1.7592   1.7592   1.7592   1.7592   1.7592
     1.7592   1.7592   1.7593   1.7594   1.7594   1.7594   1.7597   1.7597
     2.0631   2.0687   2.0687   2.0687   2.0691   2.0697   2.0697   2.0697
     2.1363   2.1363   2.1363   2.1374   2.1374   2.1374   2.1375   2.1375
     2.1375   2.1375   2.1379   2.1379   2.2349   2.2352   2.2352   2.2352
     2.2363   2.2363   2.2363   2.2366   2.2366   2.2367   2.2367   2.2367
     2.4507   2.4560   2.4560   2.4560   2.4578   2.4578   2.4578   2.4578
     2.4578   2.4578   2.4579   2.4579   2.4579   2.4579   2.4579   2.4579
     2.4579   2.4579   2.4579   2.4585   2.4585   2.4585   2.4586   2.4586
     2.4758   2.4824   2.4824   2.4828   2.4828   2.4828   2.5371   2.5418
     2.5418   2.5418   2.5433   2.5433   2.5433   2.5435   2.5435   2.5435
     2.5435   2.5435   2.5435   2.5435   2.5435   2.5435   2.5435   2.5435
     2.5435   2.5440   2.5440   2.5442   2.5442   2.5442   2.5798   2.5798
     2.5798   2.5811   2.5811   2.5811   2.5813   2.5817   2.5817   2.5817
     2.5817   2.5817   2.5817   2.5817   2.5817   2.5817   2.5817   2.5817
     2.5817   2.5820   2.5820   2.5820   2.5823   2.5823   2.6326   2.6326
     2.6326   2.6329   2.6340   2.6340   2.6340   2.6344   2.6344   2.6344
     2.6344   2.6344   2.6344   2.6345   2.6345   2.6345   2.6345   2.6345
     2.6346   2.6349   2.6349   2.6352   2.6352   2.6352   3.1619   3.1619
     3.1619   3.1619   3.1619   3.1619   3.2434   3.2434   3.2434   3.2442
     3.2442   3.2442   3.2446   3.2446   3.2446   3.2446   3.2447   3.2447
     3.2447   3.2447   3.2447   3.2448   3.2448   3.2448   3.2448   3.2453
     3.2453   3.2453   3.2456   3.2456   3.2813   3.2831   3.2831   3.2831
     3.2844   3.2844   3.2844   3.2846   3.2846   3.2846   3.2846   3.2846
     3.2846   3.2846   3.2846   3.2846   3.2846   3.2846   3.2847   3.2849
     3.2849   3.2861   3.2861   3.2861   3.3052   3.3146   3.3146   3.3146
     3.3148   3.3148   3.3148   3.3148   3.3148   3.3163   3.3163   3.3163
     3.4070   3.4070   3.4070   3.4071   3.4071   3.4071   3.4076   3.4076
     3.4076   3.4080   3.4080   3.4080   3.4184   3.4184   3.4184   3.4187
     3.4189   3.4189   3.4189   3.4193   3.4193   3.4193   3.4193   3.4194
     3.4194   3.4194   3.4194   3.4194   3.4194   3.4194   3.4194   3.4199
     3.4199   3.4199   3.4204   3.4204   3.5313   3.5370   3.5370   3.5370
     3.5374   3.5374   3.5374   3.5378   3.5378   3.5378   3.5378   3.5378
     3.5378   3.5378   3.5379   3.5379   3.5379   3.5379   3.5379   3.5383
     3.5383   3.5395   3.5395   3.5395   3.5894   3.5894   3.5894   3.5897
     3.5897   3.5897   3.5899   3.5899   3.5899   3.5899   3.5901   3.5901
     3.8092   3.8092   3.8092   3.8095   3.8095   3.8095   3.8100   3.8100
     3.8100   3.8100   3.8101   3.8101   3.8101   3.8101   3.8101   3.8101
     3.8101   3.8101   3.8101   3.8104   3.8104   3.8108   3.8108   3.8108
     3.8489   3.8489   3.8489   3.8489   3.8489   3.8489   3.8493   3.8494
     3.8494   3.8494   3.8494   3.8494   3.8494   3.8495   3.8495   3.8495
     3.8495   3.8495   3.8495   3.8503   3.8503   3.8503   3.8505   3.8505
     4.1233   4.1233   4.1233   4.1235   4.1235   4.1235   4.1237   4.1237
     4.1237   4.1247   4.1247   4.1247   4.1588   4.1659   4.1659   4.1659
     4.1661   4.1661   4.1661   4.1662   4.1663   4.1663   4.1663   4.1663
     4.1663   4.1664   4.1664   4.1664   4.1664   4.1664   4.1664   4.1669
     4.1669   4.1686   4.1686   4.1686   4.3734   4.3739   4.3739   4.3739
     4.3743   4.3743   4.3743   4.3744   4.3744   4.3758   4.3758   4.3758
     4.4280   4.4280   4.4280   4.4281   4.4281   4.4281   4.4286   4.4286
     4.4286   4.4286   4.4286   4.4286   4.4286   4.4286   4.4286   4.4286
     4.4286   4.4286   4.4287   4.4289   4.4289   4.4309   4.4310   4.4310
     4.5823   4.5837   4.5837   4.5837   4.5838   4.5838   4.5838   4.5839
     4.5839   4.5839   4.5840   4.5840   4.5840   4.5840   4.5840   4.5841
     4.5841   4.5841   4.5841   4.5848   4.5848   4.5864   4.5864   4.5864
     4.6579   4.6628   4.6628   4.6639   4.6639   4.6639   4.6889   4.6889
     4.6889   4.6892   4.6892   4.6892   4.6892   4.6896   4.6896   4.6901
     4.6901   4.6901   4.7513   4.7513   4.7513   4.7521   4.7521   4.7521
     4.7521   4.7521   4.7521   4.7521   4.7521   4.7521   4.7521   4.7521
     4.7521   4.7521   4.7521   4.7521   4.7521   4.7527   4.7527   4.7542
     4.7542   4.7542   4.8196   4.8196   4.8196   4.8200   4.8200   4.8207
     4.8207   4.8207   5.2067   5.2067   5.2067   5.2068   5.2068   5.2068
     5.2069   5.2069   5.2069   5.2091   5.2091   5.2091   5.2565   5.2565
     5.2565   5.2566   5.2566   5.2566   5.2567   5.2567   5.2568   5.2568
     5.2568   5.2569   5.2569   5.2598   5.2598   5.2598   5.7252   5.7252
     5.7252   5.7252   5.7252   5.7252   5.7253   5.7254   5.7254   5.7280
     5.7280   5.7280   6.0175   6.0175   6.0175   6.5317   6.5357   6.5357
     6.5362   6.5362   6.5362   6.6221   6.6262   6.6262   6.6262   6.6263
     6.6263   7.0584   7.0618   7.0618   7.0627   7.0627   7.0627   7.1172
     7.1229   7.1229   7.1229   7.1231   7.1231   7.1231   7.1257   7.1257
     7.1257   7.1261   7.1261   7.4214   7.4379   7.4379   7.4379   7.4407
     7.4442   7.4442   7.4442   7.4444   7.4445   7.4445   7.4445   7.4445
     7.4445   7.4446   7.4446   7.4446   7.4446   7.4446   7.4446   7.4447
     7.4447   7.4447   7.4492   7.4492   7.4495   7.4495   7.4495   7.4551
     7.4582   7.4582   7.4582   7.4599   7.4599   7.8673   7.8824   7.8824
     7.8824   7.8828   7.8828   7.8828   7.8829   7.8829   7.8829   7.8829
     7.8829   7.8829   7.8830   7.8830   7.8830   7.8835   7.8835   7.8835
     7.8854   7.8854   7.8870   7.8870   7.8870   7.8938   7.8996   7.8996
     7.8996   7.9000   7.9000   7.9000   7.9001   7.9001   7.9001   7.9001
     7.9001   7.9001   7.9001   7.9001   7.9001   7.9006   7.9006   7.9006
     7.9063   7.9063   7.9068   7.9068   7.9068   7.9289   7.9369   7.9374
     7.9374   7.9374   7.9397   7.9397   7.9397   7.9661   7.9673   7.9673
     7.9690   7.9690   7.9690   8.1630   8.1791   8.1796   8.1796   8.1796
     8.1797   8.1797   8.1797   8.1798   8.1798   8.1798   8.1798   8.1798
     8.1799   8.1799   8.1799   8.1804   8.1804   8.1804   8.1836   8.1836
     8.1853   8.1853   8.1853   8.2636   8.2846   8.2846   8.2846   8.2848
     8.2848   8.2848   8.2849   8.2849   8.2849   8.2849   8.2849   8.2849
     8.2849   8.2849   8.2849   8.2853   8.2853   8.2853   8.2874   8.2874
     8.2908   8.2908   8.2908   8.3765   8.3829   8.3829   8.3829   8.3833
     8.3833   8.3834   8.3850   8.3850   8.3850   8.3856   8.3856   8.3907
     8.3937   8.3938   8.3938   8.3940   8.3940   8.3940   8.3941   8.3941
     8.3941   8.3942   8.3942   8.3950   8.3950   8.3950   8.3965   8.3965
     8.4027   8.4027   8.4027

     the Fermi energy is     6.3386 ev

!    total energy              =   -5128.14960992 Ry
     estimated scf accuracy    <          6.7E-11 Ry
     smearing contrib. (-TS)   =      -0.00000000 Ry
     internal energy E=F+TS    =   -5128.14960992 Ry

     The total energy is F=E-TS. E is the sum of the following terms:
     one-electron contribution =    1072.71930272 Ry
     hartree contribution      =     404.47264803 Ry
     xc contribution           =   -2256.46259494 Ry
     ewald contribution        =   -4348.87896572 Ry
 
     Band energy sum           =     128.32668823 Ry

     convergence has been achieved in  20 iterations
 
     evp_work_count :  1609.216271
 
     init_run     :     72.81s CPU     13.06s WALL (       1 calls)
     electrons    :   1045.63s CPU    117.45s WALL (       1 calls)

     Called by init_run:
     potinit      :      6.26s CPU      0.60s WALL (       1 calls)
     hinit0       :      7.51s CPU      0.63s WALL (       1 calls)

     Called by electrons:
     c_bands      :    683.51s CPU     82.80s WALL (      21 calls)
     sum_band     :    185.33s CPU     16.30s WALL (      21 calls)
     v_of_rho     :     10.84s CPU      0.90s WALL (      21 calls)
     mix_rho      :     10.95s CPU      0.93s WALL (      21 calls)

     Called by c_bands:

     Called by sum_band:

     Called by *egterg:

     Called by h_psi:

     General routines
     fft          :     22.65s CPU      1.92s WALL (     125 calls)
     ffts         :      0.50s CPU      0.04s WALL (      21 calls)
     interpolate  :      8.20s CPU      0.69s WALL (      21 calls)
 
     Parallel routines
     fft_scatt_xy :      1.66s CPU      0.13s WALL (     146 calls)
     fft_scatt_yz :     16.64s CPU      1.43s WALL (     146 calls)
 
     PWSCF        :  18m47.70s CPU   2m14.40s WALL

 
   This run was terminated on:  15:20: 9  10Mar2020            

=------------------------------------------------------------------------------=
   JOB DONE.
=------------------------------------------------------------------------------=
==========================================================================================================================================================
                                                                           #         Total          %   Parent %        Median           Min           Max
----------------------------------------------------------------------------------------------------------------------------------------------------------
sirius                                                                     1      135.21 s     100.00     100.00      135.21 s      135.21 s      135.21 s
 |- sirius::initialize                                                     1     691.66 ms       0.51       0.51     691.66 ms     691.66 ms     691.66 ms
 |- qe|setup                                                               1      82.44 ms       0.06       0.06      82.44 ms      82.44 ms      82.44 ms
 |- qe|init_run                                                            1       13.06 s       9.66       9.66       13.06 s       13.06 s       13.06 s
 | |- qe|init_run|setup_sirius                                             1        6.93 s       5.12      53.01        6.93 s        6.93 s        6.93 s
 | | |- sirius::Simulation_context::initialize                             1        6.28 s       4.65      90.73        6.28 s        6.28 s        6.28 s
 | | | |- sirius::Simulation_context::init_comm                            1     106.71 ms       0.08       1.70     106.71 ms     106.71 ms     106.71 ms
 | | | |- sirius::Unit_cell::initialize                                    1     172.78 ms       0.13       2.75     172.78 ms     172.78 ms     172.78 ms
 | | | | |- sirius::Atom_type::init                                        2      33.15 us       0.00       0.02      16.58 us       3.15 us      30.00 us
 | | | | |- sirius::Unit_cell::update                                      1     172.34 ms       0.13      99.74     172.34 ms     172.34 ms     172.34 ms
 | | | | | |- sirius::Unit_cell::find_nearest_neighbours                   1     163.16 ms       0.12      94.67     163.16 ms     163.16 ms     163.16 ms
 | | | | | |- sirius::Unit_cell::get_symmetry                              1       9.11 ms       0.01       5.29       9.11 ms       9.11 ms       9.11 ms
 | | | | | | |- sirius::Unit_cell_symmetry                                 1       5.07 ms       0.00      55.71       5.07 ms       5.07 ms       5.07 ms
 | | | | | | | |- sirius::Unit_cell_symmetry|spg                           1     875.00 ns       0.00       0.02     875.00 ns     875.00 ns     875.00 ns
 | | | | | | | |- sirius::Unit_cell_symmetry|equiv                         1       5.02 ms       0.00      98.99       5.02 ms       5.02 ms       5.02 ms
 | | | | | | | |- sirius::Unit_cell_symmetry|mag                           1      19.64 us       0.00       0.39      19.64 us      19.64 us      19.64 us
 | | | |
 | | | |- sirius::Simulation_context::update                               1        6.00 s       4.44      95.55        6.00 s        6.00 s        6.00 s
 | | | | |- sirius::Unit_cell::update                                      1     180.07 ms       0.13       3.00     180.07 ms     180.07 ms     180.07 ms
 | | | | | |- sirius::Unit_cell::find_nearest_neighbours                   1     171.16 ms       0.13      95.05     171.16 ms     171.16 ms     171.16 ms
 | | | | | |- sirius::Unit_cell::get_symmetry                              1       8.86 ms       0.01       4.92       8.86 ms       8.86 ms       8.86 ms
 | | | | | | |- sirius::Unit_cell_symmetry                                 1       5.04 ms       0.00      56.93       5.04 ms       5.04 ms       5.04 ms
 | | | | | | | |- sirius::Unit_cell_symmetry|spg                           1     389.00 ns       0.00       0.01     389.00 ns     389.00 ns     389.00 ns
 | | | | | | | |- sirius::Unit_cell_symmetry|equiv                         1       5.02 ms       0.00      99.49       5.02 ms       5.02 ms       5.02 ms
 | | | | | | | |- sirius::Unit_cell_symmetry|mag                           1      17.86 us       0.00       0.35      17.86 us      17.86 us      17.86 us
 | | | | |
 | | | | |- sirius::Radial_integrals|rho_core_pseudo                       2       1.52 us       0.00       0.00     759.00 ns     218.00 ns       1.30 us
 | | | | |- sirius::Radial_integrals|rho_pseudo                            1      52.46 ms       0.04       0.87      52.46 ms      52.46 ms      52.46 ms
 | | | | |- sirius::Radial_integrals|vloc                                  2       1.75 us       0.00       0.00     873.50 ns     296.00 ns       1.45 us
 | | | | |- sirius::Radial_integrals|atomic_wfs                            4      89.00 ms       0.07       1.48      18.93 ms       3.41 us      51.14 ms
 | | | | |- sddk::Gvec::init                                               2        2.72 s       2.01      45.30        1.36 s     336.20 ms        2.38 s
 | | | | | |- sddk::Gvec::find_gvec_shells                                 2        2.25 s       1.66      82.54        1.12 s     272.45 ms        1.97 s
 | | | | |
 | | | | |- sddk::Gvec_shells                                              1     348.50 ms       0.26       5.80     348.50 ms     348.50 ms     348.50 ms
 | | | | |- sirius::Simulation_context::init_atoms_to_grid_idx             1       9.01 ms       0.01       0.15       9.01 ms       9.01 ms       9.01 ms
 | | | | |- sirius::Augmentation_operator::generate_pw_coeffs              2        1.37 s       1.01      22.84     685.58 ms     680.53 ms     690.63 ms
 | | | | | |- sirius::Augmentation_operator::generate_pw_coeffs|1          2       9.24 ms       0.01       0.67       4.62 ms       2.44 ms       6.80 ms
 | | | | | |- sirius::Augmentation_operator::generate_pw_coeffs|2          2     825.31 ms       0.61      60.19     412.66 ms     412.05 ms     413.26 ms
 | | | | | | |- sirius::Augmentation_operator::generate_pw_coeffs|gpu      2     818.50 ms       0.61      99.17     409.25 ms     408.94 ms     409.56 ms
 | | |
 | | |- sirius::K_point_set::add_kpoints                                   1      16.03 us       0.00       0.00      16.03 us      16.03 us      16.03 us
 | | | |- sirius::K_point_set::add_kpoint                                  1      13.98 us       0.00      87.24      13.98 us      13.98 us      13.98 us
 | | | | |- sirius::K_point::K_point                                       1       2.56 us       0.00      18.29       2.56 us       2.56 us       2.56 us
 | | |
 | | |- sirius::Smooth_periodic_function                                   2      11.46 ms       0.01       0.17       5.73 ms       5.64 ms       5.82 ms
 | | |- sirius::Potential                                                  1      36.07 ms       0.03       0.52      36.07 ms      36.07 ms      36.07 ms
 | | | |- sirius::Smooth_periodic_function                                 6      34.86 ms       0.03      96.63       5.81 ms       5.77 ms       5.84 ms
 | | | |- sirius::Potential::update                                        1     637.58 us       0.00       1.77     637.58 us     637.58 us     637.58 us
 | | |
 | | |- sirius::Density                                                    1      30.72 ms       0.02       0.44      30.72 ms      30.72 ms      30.72 ms
 | | | |- sirius::Smooth_periodic_function                                 2      29.40 ms       0.02      95.69      14.70 ms       5.83 ms      23.57 ms
 | | | |- sirius::Density::update                                          1     381.72 us       0.00       1.24     381.72 us     381.72 us     381.72 us
 | |
 | |- qe|init_vloc                                                         1     102.81 ms       0.08       0.79     102.81 ms     102.81 ms     102.81 ms
 | |- qe|init_run|hinit0|init_us_1                                         1     467.00 ns       0.00       0.00     467.00 ns     467.00 ns     467.00 ns
 | |- qe|init_run|hinit0|init_at_1                                         1       6.06 ms       0.00       0.05       6.06 ms       6.06 ms       6.06 ms
 | |- qe|setlocal                                                          1      77.91 ms       0.06       0.60      77.91 ms      77.91 ms      77.91 ms
 | |- qe|set_rhoc                                                          1      61.85 ms       0.05       0.47      61.85 ms      61.85 ms      61.85 ms
 | |- qe|potinit                                                           1     599.54 ms       0.44       4.59     599.54 ms     599.54 ms     599.54 ms
 | | |- qe|atomic_rho_g                                                    1       4.45 ms       0.00       0.74       4.45 ms       4.45 ms       4.45 ms
 | | | |- sirius_api::sirius_get_pw_coeffs_real                            2       2.13 ms       0.00      47.85       1.07 ms       1.03 ms       1.10 ms
 | | |
 | | |- qe|paw_becsum                                                      1     273.00 ns       0.00       0.00     273.00 ns     273.00 ns     273.00 ns
 | | |- sirius_api::sirius_set_pw_coeffs                                   1     448.28 ms       0.33      74.77     448.28 ms     448.28 ms     448.28 ms
 | | | |- sirius::Smooth_periodic_function::fft_transform                  1       6.92 ms       0.01       1.54       6.92 ms       6.92 ms       6.92 ms
 | | |
 | | |- qe|paw_potential                                                   1       1.21 us       0.00       0.00       1.21 us       1.21 us       1.21 us
 | | |- qe|set_vrs                                                         1      40.74 ms       0.03       6.79      40.74 ms      40.74 ms      40.74 ms
 | |
 | |- qe|newd                                                              1     223.76 ms       0.17       1.71     223.76 ms     223.76 ms     223.76 ms
 | | |- sirius::Potential::generate_D_operator_matrix                      1     222.15 ms       0.16      99.28     222.15 ms     222.15 ms     222.15 ms
 | |
 | |- sirius::K_point_set::initialize                                      1      28.41 ms       0.02       0.22      28.41 ms      28.41 ms      28.41 ms
 | | |- sirius::K_point::initialize                                        1      28.40 ms       0.02      99.96      28.40 ms      28.40 ms      28.40 ms
 | | | |- sirius::K_point::generate_gkvec                                  1      25.14 ms       0.02      88.52      25.14 ms      25.14 ms      25.14 ms
 | | | | |- sddk::Gvec::init                                               1       9.70 ms       0.01      38.59       9.70 ms       9.70 ms       9.70 ms
 | | | |
 | | | |- sddk::matrix_storage::matrix_storage                             1      10.49 us       0.00       0.04      10.49 us      10.49 us      10.49 us
 | | | |- sirius::K_point::update                                          1       2.15 ms       0.00       7.56       2.15 ms       2.15 ms       2.15 ms
 | | | | |- sirius::Beta_projectors                                        1       1.63 ms       0.00      75.75       1.63 ms       1.63 ms       1.63 ms
 | | | | | |- sirius::Beta_projectors::generate_pw_coefs_t                 1     638.91 us       0.00      39.31     638.91 us     638.91 us     638.91 us
 | |
 | |- sirius::Hamiltonian0                                                 1      49.41 ms       0.04       0.38      49.41 ms      49.41 ms      49.41 ms
 | | |- sirius::Local_operator                                             1      47.16 ms       0.03      95.44      47.16 ms      47.16 ms      47.16 ms
 | | | |- sirius::Smooth_periodic_function                                 1      25.79 ms       0.02      54.68      25.79 ms      25.79 ms      25.79 ms
 | | | |- sirius::Smooth_periodic_function::fft_transform                  1      14.77 ms       0.01      31.31      14.77 ms      14.77 ms      14.77 ms
 | | |
 | | |- sirius::Non_local_operator                                         2     141.23 us       0.00       0.29      70.61 us      60.59 us      80.64 us
 | | |- sirius::D_operator::initialize                                     1     611.97 us       0.00       1.24     611.97 us     611.97 us     611.97 us
 | | |- sirius::Q_operator::initialize                                     1     406.16 us       0.00       0.82     406.16 us     406.16 us     406.16 us
 | |
 | |- sirius::Band::initialize_subspace                                    1        2.10 s       1.55      16.07        2.10 s        2.10 s        2.10 s
 | | |- sirius::Hamiltonian_k                                              1     448.80 us       0.00       0.02     448.80 us     448.80 us     448.80 us
 | | | |- sirius::Local_operator::prepare_k                                1     439.13 us       0.00      97.85     439.13 us     439.13 us     439.13 us
 | | | |- sirius::Beta_projectors_base::prepare                            1       4.74 us       0.00       1.06       4.74 us       4.74 us       4.74 us
 | | |
 | | |- sirius::Band::initialize_subspace|kp                               1        2.10 s       1.55      99.98        2.10 s        2.10 s        2.10 s
 | | | |- sddk::matrix_storage::matrix_storage                             4     187.10 ms       0.14       8.92      46.01 ms      45.85 ms      49.23 ms
 | | | |- sirius::Band::initialize_subspace|kp|wf                          1      78.54 ms       0.06       3.74      78.54 ms      78.54 ms      78.54 ms
 | | | | |- sirius::K_point::generate_atomic_wave_functions                1      63.99 ms       0.05      81.48      63.99 ms      63.99 ms      63.99 ms
 | | | |
 | | | |- sirius::Hamiltonian_k::apply_h_s                                 1        1.23 s       0.91      58.79        1.23 s        1.23 s        1.23 s
 | | | | |- sirius::Local_operator::apply_h                                1     563.91 ms       0.42      45.70     563.91 ms     563.91 ms     563.91 ms
 | | | | | |- sddk::matrix_storage::remap_forward                          1     164.27 ms       0.12      29.13     164.27 ms     164.27 ms     164.27 ms
 | | | | | | |- sddk::matrix_storage::set_num_extra                        1      85.61 ms       0.06      52.12      85.61 ms      85.61 ms      85.61 ms
 | | | | | | | |- sddk::matrix_storage::set_num_extra|alloc                1      85.61 ms       0.06      99.99      85.61 ms      85.61 ms      85.61 ms
 | | | | | | |
 | | | | | | |- sddk::matrix_storage::remap_forward|mpi                    1      69.92 ms       0.05      42.56      69.92 ms      69.92 ms      69.92 ms
 | | | | | |
 | | | | | |- sddk::matrix_storage::set_num_extra                          1      93.00 ms       0.07      16.49      93.00 ms      93.00 ms      93.00 ms
 | | | | | | |- sddk::matrix_storage::set_num_extra|alloc                  1      93.00 ms       0.07     100.00      93.00 ms      93.00 ms      93.00 ms
 | | | | | |
 | | | | | |- sddk::matrix_storage::remap_backward                         1      78.82 ms       0.06      13.98      78.82 ms      78.82 ms      78.82 ms
 | | | | | | |- sddk::matrix_storage::remap_backward|mpi                   1      54.99 ms       0.04      69.77      54.99 ms      54.99 ms      54.99 ms
 | | | | |
 | | | | |- sirius::Beta_projectors_base::generate                         2       3.36 ms       0.00       0.27       1.68 ms       1.32 ms       2.04 ms
 | | | | |- sirius::Beta_projectors_base::inner                            2     454.16 ms       0.34      36.81     227.08 ms     214.94 ms     239.21 ms
 | | | | | |- sirius::Beta_projectors_base::inner|comm                     2     250.77 ms       0.19      55.22     125.39 ms     122.09 ms     128.68 ms
 | | | | |
 | | | | |- sirius::Non_local_operator::apply                              4     212.33 ms       0.16      17.21      53.16 ms      52.69 ms      53.31 ms
 | | | |
 | | | |- sirius::Band::set_subspace_mtrx                                  2     217.48 ms       0.16      10.36     108.74 ms     102.61 ms     114.87 ms
 | | | | |- sddk::inner                                                    2     217.05 ms       0.16      99.81     108.53 ms     102.39 ms     114.66 ms
 | | | | | |- sddk::inner|local                                            2      52.43 us       0.00       0.02      26.22 us      15.05 us      37.38 us
 | | | | | |- sddk::inner|device_copy                                      4      75.38 ms       0.06      34.73      18.84 ms       2.78 ms      34.93 ms
 | | | | | |- sddk::inner|store                                            4      10.00 ms       0.01       4.61       2.50 ms       1.92 ms       3.07 ms
 | | | | | |- sddk::inner|mpi                                              2     130.84 ms       0.10      60.28      65.42 ms      59.32 ms      71.52 ms
 | | | |
 | | | |- Eigensolver_cuda|dsygvd                                          1     258.39 ms       0.19      12.31     258.39 ms     258.39 ms     258.39 ms
 | | | |- sddk::transform                                                  1      16.07 ms       0.01       0.77      16.07 ms      16.07 ms      16.07 ms
 | | | | |- sddk::transform|init                                           1      17.47 us       0.00       0.11      17.47 us      17.47 us      17.47 us
 | | | | |- sddk::transform|local                                          1      18.88 us       0.00       0.12      18.88 us      18.88 us      18.88 us
 | | |
 | | |- sirius::Beta_projectors_base::dismiss                              1     565.00 ns       0.00       0.00     565.00 ns     565.00 ns     565.00 ns
 |
 |- qe|electrons                                                           1      117.45 s      86.86      86.86      117.45 s      117.45 s      117.45 s
 | |- sirius::Hamiltonian0                                                21     620.54 ms       0.46       0.53      27.58 ms      26.98 ms      39.84 ms
 | | |- sirius::Local_operator                                            21     590.38 ms       0.44      95.14      26.19 ms      25.60 ms      38.46 ms
 | | | |- sirius::Smooth_periodic_function                                21     107.86 ms       0.08      18.27       4.82 ms       4.66 ms      10.86 ms
 | | | |- sirius::Smooth_periodic_function::fft_transform                 21     345.01 ms       0.26      58.44      14.87 ms      14.25 ms      27.11 ms
 | | |
 | | |- sirius::Non_local_operator                                        42       3.23 ms       0.00       0.52      78.32 us      66.76 us      83.49 us
 | | |- sirius::D_operator::initialize                                    21      13.98 ms       0.01       2.25     624.33 us     611.31 us       1.50 ms
 | | |- sirius::Q_operator::initialize                                    21       8.67 ms       0.01       1.40     410.11 us     404.85 us     435.82 us
 | |
 | |- sirius::Band::solve                                                 21       82.17 s      60.77      69.96        3.02 s     869.18 ms       15.20 s
 | | |- sirius::Hamiltonian_k                                             21       8.46 ms       0.01       0.01     404.25 us     388.97 us     427.21 us
 | | | |- sirius::Local_operator::prepare_k                               21       8.31 ms       0.01      98.29     397.40 us     382.24 us     420.58 us
 | | | |- sirius::Beta_projectors_base::prepare                           21     100.65 us       0.00       1.19       4.76 us       4.17 us       5.65 us
 | | |
 | | |- sirius::Band::diag_pseudo_potential_davidson                      21       82.16 s      60.76      99.99        3.02 s     868.74 ms       15.20 s
 | | | |- sirius::Band::diag_pseudo_potential_davidson|alloc              21        1.07 s       0.79       1.30      11.89 ms      11.86 ms     830.41 ms
 | | | | |- sddk::matrix_storage::matrix_storage                         126     604.55 ms       0.45      56.56     439.00 ns     265.00 ns     579.13 ms
 | | | |
 | | | |- sirius::Hamiltonian_k::get_h_o_diag                             21     238.55 ms       0.18       0.29      11.31 ms      11.27 ms      12.03 ms
 | | | |- sirius::Band::diag_pseudo_potential_davidson|iter               21       80.66 s      59.65      98.17        2.99 s     836.41 ms       15.17 s
 | | | | |- sirius::Hamiltonian_k::apply_h_s                             100       29.92 s      22.12      37.09     159.57 ms      22.03 ms     832.03 ms
 | | | | | |- sirius::Local_operator::apply_h                            100       10.67 s       7.89      35.68      57.70 ms       7.54 ms     421.15 ms
 | | | | | | |- sddk::matrix_storage::remap_forward                      100        2.13 s       1.57      19.95      12.15 ms       3.85 ms     174.36 ms
 | | | | | | | |- sddk::matrix_storage::set_num_extra                    100      56.57 ms       0.04       2.66       2.85 us       2.30 us      56.20 ms
 | | | | | | | | |- sddk::matrix_storage::set_num_extra|alloc             21      56.31 ms       0.04      99.53       5.46 us       4.60 us      56.20 ms
 | | | | | | | |
 | | | | | | | |- sddk::matrix_storage::remap_forward|mpi                100        1.82 s       1.35      85.65      10.42 ms       3.56 ms     112.89 ms
 | | | | | | |
 | | | | | | |- sddk::matrix_storage::set_num_extra                      100      57.19 ms       0.04       0.54       3.97 us       1.20 us      56.76 ms
 | | | | | | | |- sddk::matrix_storage::set_num_extra|alloc               21      56.90 ms       0.04      99.50       7.47 us       6.71 us      56.75 ms
 | | | | | | |
 | | | | | | |- sddk::matrix_storage::remap_backward                     100        2.20 s       1.63      20.59      11.85 ms     845.68 us      58.32 ms
 | | | | | | | |- sddk::matrix_storage::remap_backward|mpi               100        1.54 s       1.14      70.03       8.69 ms     555.41 us      47.22 ms
 | | | | | |
 | | | | | |- sirius::Beta_projectors_base::generate                     200     282.46 ms       0.21       0.94       1.32 ms       1.29 ms       2.74 ms
 | | | | | |- sirius::Beta_projectors_base::inner                        200       12.45 s       9.20      41.60      32.26 ms       1.22 ms     187.39 ms
 | | | | | | |- sirius::Beta_projectors_base::inner|comm                 200        7.70 s       5.70      61.88      18.95 ms     319.53 us     136.78 ms
 | | | | | |
 | | | | | |- sirius::Non_local_operator::apply                          400        6.51 s       4.82      21.76       9.92 ms       2.10 ms      34.40 ms
 | | | | |
 | | | | |- sddk::orthogonalize                                          100        5.06 s       3.74       6.27      40.74 ms       1.30 ms     231.15 ms
 | | | | | |- sddk::inner                                                179        2.99 s       2.21      59.08       8.16 ms     160.75 us     119.88 ms
 | | | | | | |- sddk::inner|local                                        179       3.53 ms       0.00       0.12      20.18 us       8.17 us      37.54 us
 | | | | | | |- sddk::inner|device_copy                                  358     922.17 ms       0.68      30.85     732.47 us       9.81 us      23.15 ms
 | | | | | | |- sddk::inner|store                                        358     101.13 ms       0.07       3.38     119.62 us       1.86 us       1.48 ms
 | | | | | | |- sddk::inner|mpi                                          179        1.96 s       1.45      65.62       4.05 ms      24.43 us      92.24 ms
 | | | | | |
 | | | | | |- sddk::orthogonalize|tmtrx                                  100     239.07 ms       0.18       4.73     606.65 us      22.89 us      10.57 ms
 | | | | | |- sddk::orthogonalize|transform                              100     728.59 ms       0.54      14.40       1.92 ms      36.95 us      18.23 ms
 | | | | | |- sddk::transform                                             79        1.10 s       0.81      21.78       9.59 ms     662.13 us      51.10 ms
 | | | | | | |- sddk::transform|init                                      79       1.18 ms       0.00       0.11      13.87 us      12.55 us      25.62 us
 | | | | | | |- sddk::transform|local                                    237       2.15 ms       0.00       0.19       6.03 us       3.58 us      31.58 us
 | | | | |
 | | | | |- sirius::Band::set_subspace_mtrx                              100        3.69 s       2.73       4.58      29.64 ms       1.57 ms     123.33 ms
 | | | | | |- sddk::inner                                                100        2.96 s       2.19      80.06      21.15 ms     472.44 us     118.29 ms
 | | | | | | |- sddk::inner|local                                        100       4.20 ms       0.00       0.14      33.73 us      17.92 us      74.96 us
 | | | | | | |- sddk::inner|device_copy                                  200     963.29 ms       0.71      32.58       1.32 ms      13.70 us      35.19 ms
 | | | | | | |- sddk::inner|store                                        200     106.73 ms       0.08       3.61     379.96 us       7.79 us       3.28 ms
 | | | | | | |- sddk::inner|mpi                                          100        1.88 s       1.39      63.60      14.23 ms     173.03 us      90.95 ms
 | | | | |
 | | | | |- sirius::Band::diag_pseudo_potential_davidson|evp             100       40.33 s      29.83      50.00     306.18 ms     103.33 ms        1.09 s
 | | | | | |- Eigensolver_cuda|dsyevd                                    100       40.33 s      29.83     100.00     306.18 ms     103.32 ms        1.09 s
 | | | | |
 | | | | |- sirius::residuals                                            100        1.22 s       0.90       1.51       9.89 ms      10.51 us      51.49 ms
 | | | | | |- sddk::transform                                             83     838.54 ms       0.62      68.73       6.98 ms     884.22 us      34.65 ms
 | | | | | | |- sddk::transform|init                                      83       1.21 ms       0.00       0.14      14.20 us      12.39 us      20.11 us
 | | | | | | |- sddk::transform|local                                    166       2.81 ms       0.00       0.34      15.34 us       4.83 us      55.84 us
 | | | | | |
 | | | | | |- sirius::normalized_preconditioned_residuals                 83     278.22 ms       0.21      22.80       2.77 ms     337.39 us      27.74 ms
 | | | | |
 | | | | |- sirius::Band::diag_pseudo_potential_davidson|update_phi       21     432.17 ms       0.32       0.54      21.40 ms       9.90 ms      37.22 ms
 | | | | | |- sddk::transform                                             21     432.01 ms       0.32      99.96      21.39 ms       9.89 ms      37.21 ms
 | | | | | | |- sddk::transform|init                                      21     228.48 us       0.00       0.05      12.04 us       5.65 us      12.79 us
 | | | | | | |- sddk::transform|local                                     21     361.90 us       0.00       0.08      18.28 us       9.62 us      18.95 us
 | | |
 | | |- sirius::Beta_projectors_base::dismiss                             21      12.56 us       0.00       0.00     600.00 ns     502.00 ns     788.00 ns
 | | |- sirius::K_point_set::sync_band_energies                           21     345.72 us       0.00       0.00      16.06 us      15.31 us      21.52 us
 | |
 | |- qe|sum_band                                                         21       16.27 s      12.03      13.85     763.35 ms     739.41 ms     838.36 ms
 | | |- sirius::Density::generate                                         21       13.38 s       9.89      82.21     625.80 ms     603.17 ms     696.69 ms
 | | | |- sirius::Density::generate_valence                               21       13.38 s       9.89     100.00     625.80 ms     603.17 ms     696.68 ms
 | | | | |- sddk::matrix_storage::remap_forward                           21     675.92 ms       0.50       5.05      31.37 ms      29.10 ms      41.96 ms
 | | | | | |- sddk::matrix_storage::set_num_extra                         21     138.59 us       0.00       0.02       6.57 us       5.62 us      10.20 us
 | | | | | | |- sddk::matrix_storage::set_num_extra|alloc                  1       6.14 us       0.00       4.43       6.14 us       6.14 us       6.14 us
 | | | | | |
 | | | | | |- sddk::matrix_storage::remap_forward|mpi                     21     589.14 ms       0.44      87.16      27.31 ms      25.03 ms      36.16 ms
 | | | | |
 | | | | |- sirius::Density::add_k_point_contribution_dm                  21        4.67 s       3.45      34.90     218.21 ms     203.18 ms     252.19 ms
 | | | | | |- sirius::Beta_projectors_base::prepare                       21     228.06 us       0.00       0.00      10.74 us       9.90 us      12.46 us
 | | | | | |- sirius::Beta_projectors_base::generate                      42      55.71 ms       0.04       1.19       1.32 ms       1.30 ms       1.36 ms
 | | | | | |- sirius::Beta_projectors_base::inner                         42        4.59 s       3.40      98.37     107.54 ms      95.50 ms     139.30 ms
 | | | | | | |- sirius::Beta_projectors_base::inner|comm                  42        2.76 s       2.04      60.04      64.15 ms      52.43 ms      96.01 ms
 | | | | | |
 | | | | | |- sirius::Beta_projectors_base::dismiss                       21      10.15 us       0.00       0.00     457.00 ns     394.00 ns     713.00 ns
 | | | | |
 | | | | |- sirius::Density::add_k_point_contribution_rg                  21        1.43 s       1.05      10.66      67.18 ms      66.90 ms      81.96 ms
 | | | | |- sirius::Smooth_periodic_function::fft_transform               21     185.24 ms       0.14       1.38       8.82 ms       8.80 ms       8.85 ms
 | | | | |- sirius::Density::augment                                      21        4.29 s       3.17      32.05     201.69 ms     201.64 ms     254.34 ms
 | | | | | |- sirius::Density::generate_rho_aug                           21        4.28 s       3.17      99.87     201.42 ms     201.37 ms     254.07 ms
 | | |
 | | |- sirius_api::sirius_get_pw_coeffs                                  21        2.35 s       1.74      14.45     111.55 ms     110.39 ms     117.23 ms
 | | | |- sirius::Smooth_periodic_function::gather_f_pw                   21        1.89 s       1.40      80.38      89.56 ms      88.57 ms      95.41 ms
 | | |
 | | |- qe|sym_rho                                                        21      32.95 us       0.00       0.00       1.33 us       1.18 us       4.64 us
 | |
 | |- qe|mix                                                              21     928.09 ms       0.69       0.79      49.45 ms     555.03 us      53.65 ms
 | |- sirius_api::sirius_set_pw_coeffs                                    20       11.23 s       8.31       9.56     549.91 ms     511.60 ms     702.17 ms
 | | |- sirius::Smooth_periodic_function::fft_transform                   20     123.03 ms       0.09       1.10       6.04 ms       5.76 ms       7.62 ms
 | |
 | |- qe|newd                                                             20        4.12 s       3.05       3.51     206.16 ms     205.66 ms     207.53 ms
 | | |- sirius::Potential::generate_D_operator_matrix                     20        4.09 s       3.03      99.25     204.63 ms     204.13 ms     205.99 ms
 |
 |- sirius_api::sirius_get_wave_functions                                  1        2.24 s       1.66       1.66        2.24 s        2.24 s        2.24 s
 | |- sddk::matrix_storage::matrix_storage                                 1      17.06 us       0.00       0.00      17.06 us      17.06 us      17.06 us
 |
 |- qe|ions                                                                1     460.89 ms       0.34       0.34     460.89 ms     460.89 ms     460.89 ms
 | |- sirius_api::sirius_set_pw_coeffs                                     1     459.76 ms       0.34      99.75     459.76 ms     459.76 ms     459.76 ms
 | | |- sirius::Smooth_periodic_function::fft_transform                    1       6.97 ms       0.01       1.52       6.97 ms       6.97 ms       6.97 ms
 |
 |- qe|punch                                                               1     892.00 ns       0.00       0.00     892.00 ns     892.00 ns     892.00 ns
 |- sirius::finalize                                                       1     110.06 ms       0.08       0.08     110.06 ms     110.06 ms     110.06 ms

==========================================================================================================================================================
 
Batch Job Summary Report for Job "test_scf" (20934931) on daint
-----------------------------------------------------------------------------------------------------
             Submit            Eligible               Start                 End    Elapsed  Timelimit 
------------------- ------------------- ------------------- ------------------- ---------- ---------- 
2020-03-10T15:12:35 2020-03-10T15:12:35 2020-03-10T15:17:17 2020-03-10T15:20:14   00:02:57   00:20:00 
-----------------------------------------------------------------------------------------------------
Username    Account     Partition   NNodes   Energy
----------  ----------  ----------  ------  --------------
antonk      csstaff     normal          25  728.57K joules
----------------------------------------------------------
gpusecs  maxgpusecs        maxmem            summem
-------  ----------  ------------  ----------------
   1886        1886    5232394240      141622771712
----------------------------------------------------------
Scratch File System        Files       Quota
--------------------  ----------  ----------
/scratch/snx3000            2651     1000000
 
