
     Program PWSCF v.6.1 (svn rev. 13369) starts on 20Apr2017 at  9:42:28 

     This program is part of the open-source Quantum ESPRESSO suite
     for quantum simulation of materials; please cite
         "P. Giannozzi et al., J. Phys.:Condens. Matter 21 395502 (2009);
          URL http://www.quantum-espresso.org", 
     in publications or presentations arising from this work. More details at
     http://www.quantum-espresso.org/quote

     Parallel version (MPI), running on  1024 processors
     K-points division:     npool     =     128
     R & G space division:  proc/nbgrp/npool/nimage =       8
     Reading input from pw.in

     Current dimensions of program PWSCF are:
     Max number of different atomic species (ntypx) = 10
     Max number of k-points (npk) =  40000
     Max angular momentum in pseudopotentials (lmaxx) =  3

     Subspace diagonalization in iterative solution of the eigenvalue problem:
     a serial algorithm will be used

 
     Parallelization info
     --------------------
     sticks:   dense  smooth     PW     G-vecs:    dense   smooth      PW
     Min         672     338     96                32530    11527    1794
     Max         673     340     97                32534    11528    1798
     Sum        5377    2713    769               260251    92217   14361
 


     bravais-lattice index     =            0
     lattice parameter (alat)  =      14.7236  a.u.
     unit-cell volume          =    2256.9821 (a.u.)^3
     number of atoms/cell      =           24
     number of atomic types    =            2
     number of electrons       =       192.00
     number of Kohn-Sham states=          115
     kinetic-energy cutoff     =      45.0000  Ry
     charge density cutoff     =     360.0000  Ry
     convergence threshold     =      2.4E-07
     mixing beta               =       0.3500
     number of iterations used =            8  plain     mixing
     Exchange-correlation      = SLA  PW   PBE  PBE ( 1  4  3  4 0 0)

     celldm(1)=  14.723612  celldm(2)=   0.000000  celldm(3)=   0.000000
     celldm(4)=   0.000000  celldm(5)=   0.000000  celldm(6)=   0.000000

     crystal axes: (cart. coord. in units of alat)
               a(1) = (   1.000000   0.000000   0.000000 )  
               a(2) = (  -0.500000   0.707107  -0.500000 )  
               a(3) = (   0.000000   0.000000   1.000000 )  

     reciprocal axes: (cart. coord. in units 2 pi/alat)
               b(1) = (  1.000000  0.707107  0.000000 )  
               b(2) = (  0.000000  1.414214  0.000000 )  
               b(3) = (  0.000000  0.707107  1.000000 )  


     PseudoPot. # 1 for Na read from file:
     ./pseudo/Na_pbe_v1.uspp.F.UPF
     MD5 check sum: 76a99c7e9422403d3e93cbc85ab7bccb
     Pseudo is Ultrasoft, Zval =  9.0
     Generated by new atomic code, or converted to UPF format
     Using radial grid of  819 points,  5 beta functions with: 
                l(1) =   0
                l(2) =   0
                l(3) =   1
                l(4) =   1
                l(5) =   2
     Q(r) pseudized with  8 coefficients,  rinner =    1.250   1.250   1.250
                                                       1.250   1.250

     PseudoPot. # 2 for O  read from file:
     ./pseudo/O_pbe_v1.2.uspp.F.UPF
     MD5 check sum: 734c27235a0248c51dbae37a1fbe46ec
     Pseudo is Ultrasoft + core correction, Zval =  6.0
     Generated by new atomic code, or converted to UPF format
     Using radial grid of  737 points,  5 beta functions with: 
                l(1) =   0
                l(2) =   0
                l(3) =   1
                l(4) =   1
                l(5) =   2
     Q(r) pseudized with  8 coefficients,  rinner =    0.900   0.900   0.900
                                                       0.900   0.900

     atomic species   valence    mass     pseudopotential
        Na             9.00    22.98977     Na( 1.00)
        O              6.00    15.99940     O ( 1.00)

     No symmetry found



   Cartesian axes

     site n.     atom                  positions (alat units)
         1           Na  tau(   1) = (   0.2480006   0.1816205  -0.0088298  )
         2           Na  tau(   2) = (   0.2442276   0.1751519   0.5083346  )
         3           Na  tau(   3) = (   0.0079029   0.5296288  -0.2434824  )
         4           Na  tau(   4) = (   0.0070265   0.5229028   0.2490560  )
         5           Na  tau(   5) = (   0.7574231   0.1748804  -0.0068357  )
         6           Na  tau(   6) = (   0.7456596   0.1831956   0.4932632  )
         7           Na  tau(   7) = (   0.4909560   0.5344985  -0.2474988  )
         8           Na  tau(   8) = (   0.5008402   0.5389394   0.2444682  )
         9           Na  tau(   9) = (   0.0081340   0.1824308   0.2472990  )
        10           Na  tau(  10) = (  -0.0052220   0.1850177   0.7467997  )
        11           Na  tau(  11) = (  -0.2448280   0.5232254   0.0053104  )
        12           Na  tau(  12) = (  -0.2549976   0.5244033   0.5067323  )
        13           Na  tau(  13) = (   0.5087954   0.1717887   0.2482144  )
        14           Na  tau(  14) = (   0.4912417   0.1799920   0.7457127  )
        15           Na  tau(  15) = (   0.2465708   0.5250319   0.0080991  )
        16           Na  tau(  16) = (   0.2556700   0.5228488   0.4958397  )
        17           O   tau(  17) = (   0.0004461   0.0019119   0.9899217  )
        18           O   tau(  18) = (   0.4967317   0.6976460   0.0022886  )
        19           O   tau(  19) = (   0.7550405   0.3461905   0.7550801  )
        20           O   tau(  20) = (   0.7411253   0.3521528   0.2450297  )
        21           O   tau(  21) = (   0.0027894   0.6978001   0.5033214  )
        22           O   tau(  22) = (  -0.0073866   0.7025188  -0.0054603  )
        23           O   tau(  23) = (   0.2493128   0.3515152   0.7399601  )
        24           O   tau(  24) = (   0.2403927   0.3502103   0.2486036  )

     number of k points=  1756  Marzari-Vanderbilt smearing, width (Ry)=  0.0200

     Number of k-points >= 100: set verbosity='high' to print them.

     Dense  grid:   260251 G-vectors     FFT dimensions: (  90,  90,  90)

     Smooth grid:    92217 G-vectors     FFT dimensions: (  64,  64,  64)

     Estimated max dynamical RAM per process >      91.93MB

     Estimated total allocated dynamical RAM >   94134.60MB

     Check: negative/imaginary core charge=   -0.000001    0.000000

     Initial potential from superposition of free atoms

     starting charge  191.89934, renormalised to  192.00000
     Starting wfc are  112 randomized atomic wfcs +    3 random wfc

     total cpu time spent up to now is       12.7 secs

     per-process dynamical memory:   101.1 Mb

     Self-consistent Calculation

     iteration #  1     ecut=    45.00 Ry     beta=0.35
     Davidson diagonalization with overlap
     ethr =  1.00E-02,  avg # of iterations =  4.2

     total cpu time spent up to now is       42.3 secs

     total energy              =   -1779.48733171 Ry
     Harris-Foulkes estimate   =   -1782.87487515 Ry
     estimated scf accuracy    <       6.84642728 Ry

     iteration #  2     ecut=    45.00 Ry     beta=0.35
     Davidson diagonalization with overlap
     ethr =  3.57E-03,  avg # of iterations =  2.0

     total cpu time spent up to now is       64.7 secs

     total energy              =   -1780.86141843 Ry
     Harris-Foulkes estimate   =   -1781.14890632 Ry
     estimated scf accuracy    <       0.87076245 Ry

     iteration #  3     ecut=    45.00 Ry     beta=0.35
     Davidson diagonalization with overlap
     ethr =  4.54E-04,  avg # of iterations =  2.1

     total cpu time spent up to now is       91.1 secs

     total energy              =   -1780.96338201 Ry
     Harris-Foulkes estimate   =   -1781.07004084 Ry
     estimated scf accuracy    <       0.49955331 Ry

     iteration #  4     ecut=    45.00 Ry     beta=0.35
     Davidson diagonalization with overlap
     ethr =  2.60E-04,  avg # of iterations =  2.0

     total cpu time spent up to now is      117.5 secs

     total energy              =   -1780.99019652 Ry
     Harris-Foulkes estimate   =   -1781.03716872 Ry
     estimated scf accuracy    <       0.20559876 Ry

     iteration #  5     ecut=    45.00 Ry     beta=0.35
     Davidson diagonalization with overlap
     ethr =  1.07E-04,  avg # of iterations =  2.2

     total cpu time spent up to now is      149.5 secs

     total energy              =   -1780.96634184 Ry
     Harris-Foulkes estimate   =   -1781.00359233 Ry
     estimated scf accuracy    <       0.16243722 Ry

     iteration #  6     ecut=    45.00 Ry     beta=0.35
     Davidson diagonalization with overlap
     ethr =  8.46E-05,  avg # of iterations =  2.4

     total cpu time spent up to now is      182.5 secs

     total energy              =   -1780.97981410 Ry
     Harris-Foulkes estimate   =   -1781.01428628 Ry
     estimated scf accuracy    <       0.21582779 Ry

     iteration #  7     ecut=    45.00 Ry     beta=0.35
     Davidson diagonalization with overlap
     ethr =  8.46E-05,  avg # of iterations =  2.0

     total cpu time spent up to now is      207.0 secs

     total energy              =   -1780.99543096 Ry
     Harris-Foulkes estimate   =   -1781.01932609 Ry
     estimated scf accuracy    <       0.16209982 Ry

     iteration #  8     ecut=    45.00 Ry     beta=0.35
     Davidson diagonalization with overlap
     ethr =  8.44E-05,  avg # of iterations =  1.0

     total cpu time spent up to now is      228.1 secs

     total energy              =   -1780.99544764 Ry
     Harris-Foulkes estimate   =   -1781.00716042 Ry
     estimated scf accuracy    <       0.10847294 Ry

     iteration #  9     ecut=    45.00 Ry     beta=0.35
     Davidson diagonalization with overlap
     ethr =  5.65E-05,  avg # of iterations =  1.0

     total cpu time spent up to now is      247.1 secs

     total energy              =   -1780.99246270 Ry
     Harris-Foulkes estimate   =   -1781.00106676 Ry
     estimated scf accuracy    <       0.08256534 Ry

     iteration # 10     ecut=    45.00 Ry     beta=0.35
     Davidson diagonalization with overlap
     ethr =  4.30E-05,  avg # of iterations =  1.0

     total cpu time spent up to now is      267.9 secs

     total energy              =   -1780.98538044 Ry
     Harris-Foulkes estimate   =   -1780.99724770 Ry
     estimated scf accuracy    <       0.07319664 Ry

     iteration # 11     ecut=    45.00 Ry     beta=0.35
     Davidson diagonalization with overlap
     ethr =  3.81E-05,  avg # of iterations =  2.1

     total cpu time spent up to now is      299.9 secs

     total energy              =   -1780.98492861 Ry
     Harris-Foulkes estimate   =   -1780.99799384 Ry
     estimated scf accuracy    <       0.11561522 Ry

     iteration # 12     ecut=    45.00 Ry     beta=0.35
     Davidson diagonalization with overlap
     ethr =  3.81E-05,  avg # of iterations =  1.0

     total cpu time spent up to now is      318.8 secs

     total energy              =   -1780.98880942 Ry
     Harris-Foulkes estimate   =   -1780.99278052 Ry
     estimated scf accuracy    <       0.04871584 Ry

     iteration # 13     ecut=    45.00 Ry     beta=0.35
     Davidson diagonalization with overlap
     ethr =  2.54E-05,  avg # of iterations =  1.0

     total cpu time spent up to now is      339.9 secs

     total energy              =   -1780.99022032 Ry
     Harris-Foulkes estimate   =   -1780.99108996 Ry
     estimated scf accuracy    <       0.01335089 Ry

     iteration # 14     ecut=    45.00 Ry     beta=0.35
     Davidson diagonalization with overlap
     ethr =  6.95E-06,  avg # of iterations =  3.3

     total cpu time spent up to now is      386.6 secs

     total energy              =   -1780.98962773 Ry
     Harris-Foulkes estimate   =   -1780.99114479 Ry
     estimated scf accuracy    <       0.01338632 Ry

     iteration # 15     ecut=    45.00 Ry     beta=0.35
     Davidson diagonalization with overlap
     ethr =  6.95E-06,  avg # of iterations =  1.2

     total cpu time spent up to now is      418.6 secs

     total energy              =   -1780.99034999 Ry
     Harris-Foulkes estimate   =   -1780.99080918 Ry
     estimated scf accuracy    <       0.00393672 Ry

     iteration # 16     ecut=    45.00 Ry     beta=0.35
     Davidson diagonalization with overlap
     ethr =  2.05E-06,  avg # of iterations =  5.0

     total cpu time spent up to now is      465.9 secs

     total energy              =   -1780.99044782 Ry
     Harris-Foulkes estimate   =   -1780.99065333 Ry
     estimated scf accuracy    <       0.00095543 Ry

     iteration # 17     ecut=    45.00 Ry     beta=0.35
     Davidson diagonalization with overlap
     ethr =  4.98E-07,  avg # of iterations =  1.1

     total cpu time spent up to now is      491.7 secs

     total energy              =   -1780.99033715 Ry
     Harris-Foulkes estimate   =   -1780.99076463 Ry
     estimated scf accuracy    <       0.00314280 Ry

     iteration # 18     ecut=    45.00 Ry     beta=0.35
     Davidson diagonalization with overlap
     ethr =  4.98E-07,  avg # of iterations =  1.1

     total cpu time spent up to now is      511.5 secs

     total energy              =   -1780.99051805 Ry
     Harris-Foulkes estimate   =   -1780.99070284 Ry
     estimated scf accuracy    <       0.00204647 Ry

     iteration # 19     ecut=    45.00 Ry     beta=0.35
     Davidson diagonalization with overlap
     ethr =  4.98E-07,  avg # of iterations =  1.0

     total cpu time spent up to now is      530.4 secs

     total energy              =   -1780.99062910 Ry
     Harris-Foulkes estimate   =   -1780.99063742 Ry
     estimated scf accuracy    <       0.00015464 Ry

     iteration # 20     ecut=    45.00 Ry     beta=0.35
     Davidson diagonalization with overlap
     ethr =  8.05E-08,  avg # of iterations =  1.0

     total cpu time spent up to now is      549.3 secs

     total energy              =   -1780.99063322 Ry
     Harris-Foulkes estimate   =   -1780.99063383 Ry
     estimated scf accuracy    <       0.00001210 Ry

     iteration # 21     ecut=    45.00 Ry     beta=0.35
     Davidson diagonalization with overlap
     ethr =  6.30E-09,  avg # of iterations =  1.0

     total cpu time spent up to now is      568.8 secs

     total energy              =   -1780.99063402 Ry
     Harris-Foulkes estimate   =   -1780.99063465 Ry
     estimated scf accuracy    <       0.00000811 Ry

     iteration # 22     ecut=    45.00 Ry     beta=0.35
     Davidson diagonalization with overlap
     ethr =  4.22E-09,  avg # of iterations =  1.0

     total cpu time spent up to now is      587.9 secs

     total energy              =   -1780.99063425 Ry
     Harris-Foulkes estimate   =   -1780.99063449 Ry
     estimated scf accuracy    <       0.00000365 Ry

     iteration # 23     ecut=    45.00 Ry     beta=0.35
     Davidson diagonalization with overlap
     ethr =  1.90E-09,  avg # of iterations =  1.0

     total cpu time spent up to now is      606.8 secs

     total energy              =   -1780.99063438 Ry
     Harris-Foulkes estimate   =   -1780.99063446 Ry
     estimated scf accuracy    <       0.00000105 Ry

     iteration # 24     ecut=    45.00 Ry     beta=0.35
     Davidson diagonalization with overlap
     ethr =  5.48E-10,  avg # of iterations =  1.0

     total cpu time spent up to now is      625.7 secs

     total energy              =   -1780.99063435 Ry
     Harris-Foulkes estimate   =   -1780.99063461 Ry
     estimated scf accuracy    <       0.00000293 Ry

     iteration # 25     ecut=    45.00 Ry     beta=0.35
     Davidson diagonalization with overlap
     ethr =  5.48E-10,  avg # of iterations =  1.0

     total cpu time spent up to now is      644.6 secs

     End of self-consistent calculation

     Number of k-points >= 100: set verbosity='high' to print the bands.

     the Fermi energy is     3.4824 ev

!    total energy              =   -1780.99063444 Ry
     Harris-Foulkes estimate   =   -1780.99063448 Ry
     estimated scf accuracy    <       0.00000006 Ry

     The total energy is the sum of the following terms:

     one-electron contribution =   -1185.33176167 Ry
     hartree contribution      =     657.88469258 Ry
     xc contribution           =    -289.00497955 Ry
     ewald contribution        =    -964.58993640 Ry
     smearing contrib. (-TS)   =       0.05135060 Ry

     convergence has been achieved in  25 iterations

     Writing output data file aiida.save
 
     init_run     :      7.45s CPU      8.83s WALL (       1 calls)
     electrons    :    583.43s CPU    632.33s WALL (       1 calls)

     Called by init_run:
     wfcinit      :      5.42s CPU      5.89s WALL (       1 calls)
     potinit      :      0.37s CPU      0.53s WALL (       1 calls)

     Called by electrons:
     c_bands      :    496.71s CPU    540.66s WALL (      25 calls)
     sum_band     :     75.76s CPU     79.36s WALL (      25 calls)
     v_of_rho     :      4.51s CPU      4.73s WALL (      26 calls)
     newd         :      5.01s CPU      5.87s WALL (      26 calls)
     mix_rho      :      0.50s CPU      0.56s WALL (      25 calls)

     Called by c_bands:
     init_us_2    :      2.94s CPU      2.99s WALL (     714 calls)
     cegterg      :    364.90s CPU    398.78s WALL (     350 calls)

     Called by sum_band:
     sum_band:bec :      0.25s CPU      0.30s WALL (     350 calls)
     addusdens    :      6.30s CPU      7.16s WALL (      25 calls)

     Called by *egterg:
     h_psi        :    242.64s CPU    250.99s WALL (    1035 calls)
     s_psi        :     16.43s CPU     16.52s WALL (    1035 calls)
     g_psi        :      0.67s CPU      0.68s WALL (     671 calls)
     cdiaghg      :     73.74s CPU     74.04s WALL (    1021 calls)

     Called by h_psi:
     h_psi:pot    :    241.82s CPU    250.12s WALL (    1035 calls)
     h_psi:calbec :     14.11s CPU     14.57s WALL (    1035 calls)
     vloc_psi     :    211.03s CPU    218.74s WALL (    1035 calls)
     add_vuspsi   :     16.66s CPU     16.78s WALL (    1035 calls)

     General routines
     calbec       :     20.90s CPU     21.60s WALL (    1385 calls)
     fft          :      2.37s CPU      2.94s WALL (     412 calls)
     ffts         :      0.09s CPU      0.09s WALL (      51 calls)
     fftw         :    194.55s CPU    202.57s WALL (  208430 calls)
     interpolate  :      0.42s CPU      0.46s WALL (      51 calls)
     davcio       :      0.00s CPU      0.23s WALL (      14 calls)
 
     Parallel routines
     fft_scatter  :     71.80s CPU     75.32s WALL (  208893 calls)
 
     PWSCF        : 10m13.70s CPU    12m51.84s WALL

 
   This run was terminated on:   9:55:19  20Apr2017            

=------------------------------------------------------------------------------=
   JOB DONE.
=------------------------------------------------------------------------------=
