
     Program PWSCF v.6.1 (svn rev. 13369) starts on 16May2017 at 12:57:34 

     This program is part of the open-source Quantum ESPRESSO suite
     for quantum simulation of materials; please cite
         "P. Giannozzi et al., J. Phys.:Condens. Matter 21 395502 (2009);
          URL http://www.quantum-espresso.org", 
     in publications or presentations arising from this work. More details at
     http://www.quantum-espresso.org/quote

     Parallel version (MPI), running on  2048 processors
     K-points division:     npool     =     256
     R & G space division:  proc/nbgrp/npool/nimage =       8
     Reading input from pw.in

     Current dimensions of program PWSCF are:
     Max number of different atomic species (ntypx) = 10
     Max number of k-points (npk) =  40000
     Max angular momentum in pseudopotentials (lmaxx) =  3

     Subspace diagonalization in iterative solution of the eigenvalue problem:
     a serial algorithm will be used

 
     Parallelization info
     --------------------
     sticks:   dense  smooth     PW     G-vecs:    dense   smooth      PW
     Min         672     338     96                32530    11527    1794
     Max         673     340     97                32534    11528    1798
     Sum        5377    2713    769               260251    92217   14361
 


     bravais-lattice index     =            0
     lattice parameter (alat)  =      14.7236  a.u.
     unit-cell volume          =    2256.9821 (a.u.)^3
     number of atoms/cell      =           24
     number of atomic types    =            2
     number of electrons       =       192.00
     number of Kohn-Sham states=          115
     kinetic-energy cutoff     =      45.0000  Ry
     charge density cutoff     =     360.0000  Ry
     convergence threshold     =      2.4E-07
     mixing beta               =       0.3500
     number of iterations used =            8  plain     mixing
     Exchange-correlation      = SLA  PW   PBE  PBE ( 1  4  3  4 0 0)

     celldm(1)=  14.723612  celldm(2)=   0.000000  celldm(3)=   0.000000
     celldm(4)=   0.000000  celldm(5)=   0.000000  celldm(6)=   0.000000

     crystal axes: (cart. coord. in units of alat)
               a(1) = (   1.000000   0.000000   0.000000 )  
               a(2) = (  -0.500000   0.707107  -0.500000 )  
               a(3) = (   0.000000   0.000000   1.000000 )  

     reciprocal axes: (cart. coord. in units 2 pi/alat)
               b(1) = (  1.000000  0.707107  0.000000 )  
               b(2) = (  0.000000  1.414214  0.000000 )  
               b(3) = (  0.000000  0.707107  1.000000 )  


     PseudoPot. # 1 for Na read from file:
     ./pseudo/Na_pbe_v1.uspp.F.UPF
     MD5 check sum: 76a99c7e9422403d3e93cbc85ab7bccb
     Pseudo is Ultrasoft, Zval =  9.0
     Generated by new atomic code, or converted to UPF format
     Using radial grid of  819 points,  5 beta functions with: 
                l(1) =   0
                l(2) =   0
                l(3) =   1
                l(4) =   1
                l(5) =   2
     Q(r) pseudized with  8 coefficients,  rinner =    1.250   1.250   1.250
                                                       1.250   1.250

     PseudoPot. # 2 for O  read from file:
     ./pseudo/O_pbe_v1.2.uspp.F.UPF
     MD5 check sum: 734c27235a0248c51dbae37a1fbe46ec
     Pseudo is Ultrasoft + core correction, Zval =  6.0
     Generated by new atomic code, or converted to UPF format
     Using radial grid of  737 points,  5 beta functions with: 
                l(1) =   0
                l(2) =   0
                l(3) =   1
                l(4) =   1
                l(5) =   2
     Q(r) pseudized with  8 coefficients,  rinner =    0.900   0.900   0.900
                                                       0.900   0.900

     atomic species   valence    mass     pseudopotential
        Na             9.00    22.98977     Na( 1.00)
        O              6.00    15.99940     O ( 1.00)

     No symmetry found



   Cartesian axes

     site n.     atom                  positions (alat units)
         1           Na  tau(   1) = (   0.2480006   0.1816205  -0.0088298  )
         2           Na  tau(   2) = (   0.2442276   0.1751519   0.5083346  )
         3           Na  tau(   3) = (   0.0079029   0.5296288  -0.2434824  )
         4           Na  tau(   4) = (   0.0070265   0.5229028   0.2490560  )
         5           Na  tau(   5) = (   0.7574231   0.1748804  -0.0068357  )
         6           Na  tau(   6) = (   0.7456596   0.1831956   0.4932632  )
         7           Na  tau(   7) = (   0.4909560   0.5344985  -0.2474988  )
         8           Na  tau(   8) = (   0.5008402   0.5389394   0.2444682  )
         9           Na  tau(   9) = (   0.0081340   0.1824308   0.2472990  )
        10           Na  tau(  10) = (  -0.0052220   0.1850177   0.7467997  )
        11           Na  tau(  11) = (  -0.2448280   0.5232254   0.0053104  )
        12           Na  tau(  12) = (  -0.2549976   0.5244033   0.5067323  )
        13           Na  tau(  13) = (   0.5087954   0.1717887   0.2482144  )
        14           Na  tau(  14) = (   0.4912417   0.1799920   0.7457127  )
        15           Na  tau(  15) = (   0.2465708   0.5250319   0.0080991  )
        16           Na  tau(  16) = (   0.2556700   0.5228488   0.4958397  )
        17           O   tau(  17) = (   0.0004461   0.0019119   0.9899217  )
        18           O   tau(  18) = (   0.4967317   0.6976460   0.0022886  )
        19           O   tau(  19) = (   0.7550405   0.3461905   0.7550801  )
        20           O   tau(  20) = (   0.7411253   0.3521528   0.2450297  )
        21           O   tau(  21) = (   0.0027894   0.6978001   0.5033214  )
        22           O   tau(  22) = (  -0.0073866   0.7025188  -0.0054603  )
        23           O   tau(  23) = (   0.2493128   0.3515152   0.7399601  )
        24           O   tau(  24) = (   0.2403927   0.3502103   0.2486036  )

     number of k points=  1756  Marzari-Vanderbilt smearing, width (Ry)=  0.0200

     Number of k-points >= 100: set verbosity='high' to print them.

     Dense  grid:   260251 G-vectors     FFT dimensions: (  90,  90,  90)

     Smooth grid:    92217 G-vectors     FFT dimensions: (  64,  64,  64)

     Estimated max dynamical RAM per process >      74.26MB

     Estimated total allocated dynamical RAM >  152094.51MB

     Check: negative/imaginary core charge=   -0.000001    0.000000

     Initial potential from superposition of free atoms

     starting charge  191.89934, renormalised to  192.00000
     Starting wfc are  112 randomized atomic wfcs +    3 random wfc

     total cpu time spent up to now is       10.9 secs

     per-process dynamical memory:    83.6 Mb

     Self-consistent Calculation

     iteration #  1     ecut=    45.00 Ry     beta=0.35
     Davidson diagonalization with overlap
     ethr =  1.00E-02,  avg # of iterations =  4.2

     total cpu time spent up to now is       27.2 secs

     total energy              =   -1779.48733983 Ry
     Harris-Foulkes estimate   =   -1782.87487632 Ry
     estimated scf accuracy    <       6.84641327 Ry

     iteration #  2     ecut=    45.00 Ry     beta=0.35
     Davidson diagonalization with overlap
     ethr =  3.57E-03,  avg # of iterations =  2.0

     total cpu time spent up to now is       39.2 secs

     total energy              =   -1780.86139473 Ry
     Harris-Foulkes estimate   =   -1781.14890614 Ry
     estimated scf accuracy    <       0.87081652 Ry

     iteration #  3     ecut=    45.00 Ry     beta=0.35
     Davidson diagonalization with overlap
     ethr =  4.54E-04,  avg # of iterations =  2.1

     total cpu time spent up to now is       53.1 secs

     total energy              =   -1780.96336371 Ry
     Harris-Foulkes estimate   =   -1781.07006003 Ry
     estimated scf accuracy    <       0.49976792 Ry

     iteration #  4     ecut=    45.00 Ry     beta=0.35
     Davidson diagonalization with overlap
     ethr =  2.60E-04,  avg # of iterations =  2.0

     total cpu time spent up to now is       67.2 secs

     total energy              =   -1780.99020756 Ry
     Harris-Foulkes estimate   =   -1781.03718189 Ry
     estimated scf accuracy    <       0.20560518 Ry

     iteration #  5     ecut=    45.00 Ry     beta=0.35
     Davidson diagonalization with overlap
     ethr =  1.07E-04,  avg # of iterations =  2.2

     total cpu time spent up to now is       84.1 secs

     total energy              =   -1780.96637130 Ry
     Harris-Foulkes estimate   =   -1781.00357375 Ry
     estimated scf accuracy    <       0.16208748 Ry

     iteration #  6     ecut=    45.00 Ry     beta=0.35
     Davidson diagonalization with overlap
     ethr =  8.44E-05,  avg # of iterations =  2.3

     total cpu time spent up to now is      102.9 secs

     total energy              =   -1780.97982319 Ry
     Harris-Foulkes estimate   =   -1781.01433261 Ry
     estimated scf accuracy    <       0.21605904 Ry

     iteration #  7     ecut=    45.00 Ry     beta=0.35
     Davidson diagonalization with overlap
     ethr =  8.44E-05,  avg # of iterations =  2.0

     total cpu time spent up to now is      116.3 secs

     total energy              =   -1780.99545814 Ry
     Harris-Foulkes estimate   =   -1781.01936461 Ry
     estimated scf accuracy    <       0.16221101 Ry

     iteration #  8     ecut=    45.00 Ry     beta=0.35
     Davidson diagonalization with overlap
     ethr =  8.44E-05,  avg # of iterations =  1.0

     total cpu time spent up to now is      128.4 secs

     total energy              =   -1780.99541663 Ry
     Harris-Foulkes estimate   =   -1781.00715115 Ry
     estimated scf accuracy    <       0.10897955 Ry

     iteration #  9     ecut=    45.00 Ry     beta=0.35
     Davidson diagonalization with overlap
     ethr =  5.68E-05,  avg # of iterations =  1.0

     total cpu time spent up to now is      138.6 secs

     total energy              =   -1780.99243527 Ry
     Harris-Foulkes estimate   =   -1781.00107929 Ry
     estimated scf accuracy    <       0.08267401 Ry

     iteration # 10     ecut=    45.00 Ry     beta=0.35
     Davidson diagonalization with overlap
     ethr =  4.31E-05,  avg # of iterations =  1.0

     total cpu time spent up to now is      151.1 secs

     total energy              =   -1780.98536075 Ry
     Harris-Foulkes estimate   =   -1780.99725464 Ry
     estimated scf accuracy    <       0.07407091 Ry

     iteration # 11     ecut=    45.00 Ry     beta=0.35
     Davidson diagonalization with overlap
     ethr =  3.86E-05,  avg # of iterations =  2.1

     total cpu time spent up to now is      168.1 secs

     total energy              =   -1780.98492268 Ry
     Harris-Foulkes estimate   =   -1780.99798374 Ry
     estimated scf accuracy    <       0.11619052 Ry

     iteration # 12     ecut=    45.00 Ry     beta=0.35
     Davidson diagonalization with overlap
     ethr =  3.86E-05,  avg # of iterations =  1.0

     total cpu time spent up to now is      178.1 secs

     total energy              =   -1780.98881604 Ry
     Harris-Foulkes estimate   =   -1780.99280393 Ry
     estimated scf accuracy    <       0.04792717 Ry

     iteration # 13     ecut=    45.00 Ry     beta=0.35
     Davidson diagonalization with overlap
     ethr =  2.50E-05,  avg # of iterations =  1.0

     total cpu time spent up to now is      191.0 secs

     total energy              =   -1780.99021000 Ry
     Harris-Foulkes estimate   =   -1780.99110214 Ry
     estimated scf accuracy    <       0.01373693 Ry

     iteration # 14     ecut=    45.00 Ry     beta=0.35
     Davidson diagonalization with overlap
     ethr =  7.15E-06,  avg # of iterations =  3.2

     total cpu time spent up to now is      215.7 secs

     total energy              =   -1780.98963262 Ry
     Harris-Foulkes estimate   =   -1780.99114019 Ry
     estimated scf accuracy    <       0.01329619 Ry

     iteration # 15     ecut=    45.00 Ry     beta=0.35
     Davidson diagonalization with overlap
     ethr =  6.93E-06,  avg # of iterations =  1.2

     total cpu time spent up to now is      235.1 secs

     total energy              =   -1780.99035016 Ry
     Harris-Foulkes estimate   =   -1780.99081132 Ry
     estimated scf accuracy    <       0.00398158 Ry

     iteration # 16     ecut=    45.00 Ry     beta=0.35
     Davidson diagonalization with overlap
     ethr =  2.07E-06,  avg # of iterations =  5.0

     total cpu time spent up to now is      260.3 secs

     total energy              =   -1780.99046307 Ry
     Harris-Foulkes estimate   =   -1780.99064843 Ry
     estimated scf accuracy    <       0.00083260 Ry

     iteration # 17     ecut=    45.00 Ry     beta=0.35
     Davidson diagonalization with overlap
     ethr =  4.34E-07,  avg # of iterations =  1.2

     total cpu time spent up to now is      278.4 secs

     total energy              =   -1780.99033508 Ry
     Harris-Foulkes estimate   =   -1780.99076769 Ry
     estimated scf accuracy    <       0.00317969 Ry

     iteration # 18     ecut=    45.00 Ry     beta=0.35
     Davidson diagonalization with overlap
     ethr =  4.34E-07,  avg # of iterations =  1.3

     total cpu time spent up to now is      289.1 secs

     total energy              =   -1780.99051962 Ry
     Harris-Foulkes estimate   =   -1780.99070251 Ry
     estimated scf accuracy    <       0.00203168 Ry

     iteration # 19     ecut=    45.00 Ry     beta=0.35
     Davidson diagonalization with overlap
     ethr =  4.34E-07,  avg # of iterations =  1.0

     total cpu time spent up to now is      299.1 secs

     total energy              =   -1780.99062934 Ry
     Harris-Foulkes estimate   =   -1780.99063724 Ry
     estimated scf accuracy    <       0.00014716 Ry

     iteration # 20     ecut=    45.00 Ry     beta=0.35
     Davidson diagonalization with overlap
     ethr =  7.66E-08,  avg # of iterations =  1.0

     total cpu time spent up to now is      309.1 secs

     total energy              =   -1780.99063332 Ry
     Harris-Foulkes estimate   =   -1780.99063384 Ry
     estimated scf accuracy    <       0.00001145 Ry

     iteration # 21     ecut=    45.00 Ry     beta=0.35
     Davidson diagonalization with overlap
     ethr =  5.96E-09,  avg # of iterations =  1.0

     total cpu time spent up to now is      319.3 secs

     total energy              =   -1780.99063424 Ry
     Harris-Foulkes estimate   =   -1780.99063457 Ry
     estimated scf accuracy    <       0.00000660 Ry

     iteration # 22     ecut=    45.00 Ry     beta=0.35
     Davidson diagonalization with overlap
     ethr =  3.44E-09,  avg # of iterations =  1.0

     total cpu time spent up to now is      329.3 secs

     total energy              =   -1780.99063430 Ry
     Harris-Foulkes estimate   =   -1780.99063449 Ry
     estimated scf accuracy    <       0.00000196 Ry

     iteration # 23     ecut=    45.00 Ry     beta=0.35
     Davidson diagonalization with overlap
     ethr =  1.02E-09,  avg # of iterations =  1.0

     total cpu time spent up to now is      339.3 secs

     total energy              =   -1780.99063438 Ry
     Harris-Foulkes estimate   =   -1780.99063449 Ry
     estimated scf accuracy    <       0.00000193 Ry

     iteration # 24     ecut=    45.00 Ry     beta=0.35
     Davidson diagonalization with overlap
     ethr =  1.00E-09,  avg # of iterations =  1.0

     total cpu time spent up to now is      349.4 secs

     total energy              =   -1780.99063443 Ry
     Harris-Foulkes estimate   =   -1780.99063453 Ry
     estimated scf accuracy    <       0.00000103 Ry

     iteration # 25     ecut=    45.00 Ry     beta=0.35
     Davidson diagonalization with overlap
     ethr =  5.36E-10,  avg # of iterations =  1.0

     total cpu time spent up to now is      359.6 secs

     End of self-consistent calculation

     Number of k-points >= 100: set verbosity='high' to print the bands.

     the Fermi energy is     3.4824 ev

!    total energy              =   -1780.99063445 Ry
     Harris-Foulkes estimate   =   -1780.99063448 Ry
     estimated scf accuracy    <       0.00000005 Ry

     The total energy is the sum of the following terms:

     one-electron contribution =   -1185.33170683 Ry
     hartree contribution      =     657.88461625 Ry
     xc contribution           =    -289.00495805 Ry
     ewald contribution        =    -964.58993640 Ry
     smearing contrib. (-TS)   =       0.05135057 Ry

     convergence has been achieved in  25 iterations

     Writing output data file aiida.save
 
     init_run     :      4.85s CPU      6.14s WALL (       1 calls)
     electrons    :    323.89s CPU    349.05s WALL (       1 calls)

     Called by init_run:
     wfcinit      :      2.72s CPU      3.03s WALL (       1 calls)
     potinit      :      0.69s CPU      0.93s WALL (       1 calls)

     Called by electrons:
     c_bands      :    268.96s CPU    290.73s WALL (      25 calls)
     sum_band     :     43.25s CPU     45.41s WALL (      25 calls)
     v_of_rho     :      4.62s CPU      4.79s WALL (      26 calls)
     newd         :      5.01s CPU      5.95s WALL (      26 calls)
     mix_rho      :      0.61s CPU      0.76s WALL (      25 calls)

     Called by c_bands:
     init_us_2    :      1.46s CPU      1.48s WALL (     357 calls)
     cegterg      :    188.39s CPU    204.23s WALL (     175 calls)

     Called by sum_band:
     sum_band:bec :      0.13s CPU      0.18s WALL (     175 calls)
     addusdens    :      6.45s CPU      7.39s WALL (      25 calls)

     Called by *egterg:
     h_psi        :    124.32s CPU    127.80s WALL (     542 calls)
     s_psi        :      8.14s CPU      8.17s WALL (     542 calls)
     g_psi        :      0.33s CPU      0.34s WALL (     360 calls)
     cdiaghg      :     39.49s CPU     39.62s WALL (     535 calls)

     Called by h_psi:
     h_psi:pot    :    123.92s CPU    127.38s WALL (     542 calls)
     h_psi:calbec :      7.21s CPU      7.26s WALL (     542 calls)
     vloc_psi     :    108.40s CPU    111.77s WALL (     542 calls)
     add_vuspsi   :      8.29s CPU      8.33s WALL (     542 calls)

     General routines
     calbec       :     10.55s CPU     10.60s WALL (     717 calls)
     fft          :      2.61s CPU      2.85s WALL (     412 calls)
     ffts         :      0.08s CPU      0.09s WALL (      51 calls)
     fftw         :     99.18s CPU    102.78s WALL (  104287 calls)
     interpolate  :      0.44s CPU      0.46s WALL (      51 calls)
     davcio       :      0.00s CPU      2.21s WALL (       7 calls)
 
     Parallel routines
     fft_scatter  :     38.94s CPU     40.56s WALL (  104750 calls)
 
     PWSCF        :  5m49.17s CPU     7m45.98s WALL

 
   This run was terminated on:  13: 5:20  16May2017            

=------------------------------------------------------------------------------=
   JOB DONE.
=------------------------------------------------------------------------------=
