
     Program PWSCF v.6.1 (svn rev. 13369) starts on  3May2017 at 13:40:14 

     This program is part of the open-source Quantum ESPRESSO suite
     for quantum simulation of materials; please cite
         "P. Giannozzi et al., J. Phys.:Condens. Matter 21 395502 (2009);
          URL http://www.quantum-espresso.org", 
     in publications or presentations arising from this work. More details at
     http://www.quantum-espresso.org/quote

     Parallel version (MPI), running on   256 processors
     K-points division:     npool     =     128
     R & G space division:  proc/nbgrp/npool/nimage =       2
     Reading input from pw.in

     Current dimensions of program PWSCF are:
     Max number of different atomic species (ntypx) = 10
     Max number of k-points (npk) =  40000
     Max angular momentum in pseudopotentials (lmaxx) =  3

     Subspace diagonalization in iterative solution of the eigenvalue problem:
     a serial algorithm will be used

 
     Parallelization info
     --------------------
     sticks:   dense  smooth     PW     G-vecs:    dense   smooth      PW
     Min        2688    1356    384               130124    46108    7179
     Max        2689    1357    385               130127    46109    7182
     Sum        5377    2713    769               260251    92217   14361
 


     bravais-lattice index     =            0
     lattice parameter (alat)  =      14.7236  a.u.
     unit-cell volume          =    2256.9821 (a.u.)^3
     number of atoms/cell      =           24
     number of atomic types    =            2
     number of electrons       =       192.00
     number of Kohn-Sham states=          115
     kinetic-energy cutoff     =      45.0000  Ry
     charge density cutoff     =     360.0000  Ry
     convergence threshold     =      2.4E-07
     mixing beta               =       0.3500
     number of iterations used =            8  plain     mixing
     Exchange-correlation      = SLA  PW   PBE  PBE ( 1  4  3  4 0 0)

     celldm(1)=  14.723612  celldm(2)=   0.000000  celldm(3)=   0.000000
     celldm(4)=   0.000000  celldm(5)=   0.000000  celldm(6)=   0.000000

     crystal axes: (cart. coord. in units of alat)
               a(1) = (   1.000000   0.000000   0.000000 )  
               a(2) = (  -0.500000   0.707107  -0.500000 )  
               a(3) = (   0.000000   0.000000   1.000000 )  

     reciprocal axes: (cart. coord. in units 2 pi/alat)
               b(1) = (  1.000000  0.707107  0.000000 )  
               b(2) = (  0.000000  1.414214  0.000000 )  
               b(3) = (  0.000000  0.707107  1.000000 )  


     PseudoPot. # 1 for Na read from file:
     ./pseudo/Na_pbe_v1.uspp.F.UPF
     MD5 check sum: 76a99c7e9422403d3e93cbc85ab7bccb
     Pseudo is Ultrasoft, Zval =  9.0
     Generated by new atomic code, or converted to UPF format
     Using radial grid of  819 points,  5 beta functions with: 
                l(1) =   0
                l(2) =   0
                l(3) =   1
                l(4) =   1
                l(5) =   2
     Q(r) pseudized with  8 coefficients,  rinner =    1.250   1.250   1.250
                                                       1.250   1.250

     PseudoPot. # 2 for O  read from file:
     ./pseudo/O_pbe_v1.2.uspp.F.UPF
     MD5 check sum: 734c27235a0248c51dbae37a1fbe46ec
     Pseudo is Ultrasoft + core correction, Zval =  6.0
     Generated by new atomic code, or converted to UPF format
     Using radial grid of  737 points,  5 beta functions with: 
                l(1) =   0
                l(2) =   0
                l(3) =   1
                l(4) =   1
                l(5) =   2
     Q(r) pseudized with  8 coefficients,  rinner =    0.900   0.900   0.900
                                                       0.900   0.900

     atomic species   valence    mass     pseudopotential
        Na             9.00    22.98977     Na( 1.00)
        O              6.00    15.99940     O ( 1.00)

     No symmetry found



   Cartesian axes

     site n.     atom                  positions (alat units)
         1           Na  tau(   1) = (   0.2480006   0.1816205  -0.0088298  )
         2           Na  tau(   2) = (   0.2442276   0.1751519   0.5083346  )
         3           Na  tau(   3) = (   0.0079029   0.5296288  -0.2434824  )
         4           Na  tau(   4) = (   0.0070265   0.5229028   0.2490560  )
         5           Na  tau(   5) = (   0.7574231   0.1748804  -0.0068357  )
         6           Na  tau(   6) = (   0.7456596   0.1831956   0.4932632  )
         7           Na  tau(   7) = (   0.4909560   0.5344985  -0.2474988  )
         8           Na  tau(   8) = (   0.5008402   0.5389394   0.2444682  )
         9           Na  tau(   9) = (   0.0081340   0.1824308   0.2472990  )
        10           Na  tau(  10) = (  -0.0052220   0.1850177   0.7467997  )
        11           Na  tau(  11) = (  -0.2448280   0.5232254   0.0053104  )
        12           Na  tau(  12) = (  -0.2549976   0.5244033   0.5067323  )
        13           Na  tau(  13) = (   0.5087954   0.1717887   0.2482144  )
        14           Na  tau(  14) = (   0.4912417   0.1799920   0.7457127  )
        15           Na  tau(  15) = (   0.2465708   0.5250319   0.0080991  )
        16           Na  tau(  16) = (   0.2556700   0.5228488   0.4958397  )
        17           O   tau(  17) = (   0.0004461   0.0019119   0.9899217  )
        18           O   tau(  18) = (   0.4967317   0.6976460   0.0022886  )
        19           O   tau(  19) = (   0.7550405   0.3461905   0.7550801  )
        20           O   tau(  20) = (   0.7411253   0.3521528   0.2450297  )
        21           O   tau(  21) = (   0.0027894   0.6978001   0.5033214  )
        22           O   tau(  22) = (  -0.0073866   0.7025188  -0.0054603  )
        23           O   tau(  23) = (   0.2493128   0.3515152   0.7399601  )
        24           O   tau(  24) = (   0.2403927   0.3502103   0.2486036  )

     number of k points=  1756  Marzari-Vanderbilt smearing, width (Ry)=  0.0200

     Number of k-points >= 100: set verbosity='high' to print them.

     Dense  grid:   260251 G-vectors     FFT dimensions: (  90,  90,  90)

     Smooth grid:    92217 G-vectors     FFT dimensions: (  64,  64,  64)

     Estimated max dynamical RAM per process >     345.03MB

     Estimated total allocated dynamical RAM >   88327.91MB

     Check: negative/imaginary core charge=   -0.000001    0.000000

     Initial potential from superposition of free atoms

     starting charge  191.89934, renormalised to  192.00000
     Starting wfc are  112 randomized atomic wfcs +    3 random wfc

     total cpu time spent up to now is       35.1 secs

     per-process dynamical memory:   280.2 Mb

     Self-consistent Calculation

     iteration #  1     ecut=    45.00 Ry     beta=0.35
     Davidson diagonalization with overlap
     ethr =  1.00E-02,  avg # of iterations =  4.2

     total cpu time spent up to now is      129.4 secs

     total energy              =   -1779.48734711 Ry
     Harris-Foulkes estimate   =   -1782.87487690 Ry
     estimated scf accuracy    <       6.84639834 Ry

     iteration #  2     ecut=    45.00 Ry     beta=0.35
     Davidson diagonalization with overlap
     ethr =  3.57E-03,  avg # of iterations =  2.0

     total cpu time spent up to now is      211.6 secs

     total energy              =   -1780.86141669 Ry
     Harris-Foulkes estimate   =   -1781.14890542 Ry
     estimated scf accuracy    <       0.87076252 Ry

     iteration #  3     ecut=    45.00 Ry     beta=0.35
     Davidson diagonalization with overlap
     ethr =  4.54E-04,  avg # of iterations =  2.1

     total cpu time spent up to now is      296.7 secs

     total energy              =   -1780.96338381 Ry
     Harris-Foulkes estimate   =   -1781.07004210 Ry
     estimated scf accuracy    <       0.49954182 Ry

     iteration #  4     ecut=    45.00 Ry     beta=0.35
     Davidson diagonalization with overlap
     ethr =  2.60E-04,  avg # of iterations =  2.0

     total cpu time spent up to now is      379.6 secs

     total energy              =   -1780.99019659 Ry
     Harris-Foulkes estimate   =   -1781.03716874 Ry
     estimated scf accuracy    <       0.20559935 Ry

     iteration #  5     ecut=    45.00 Ry     beta=0.35
     Davidson diagonalization with overlap
     ethr =  1.07E-04,  avg # of iterations =  2.2

     total cpu time spent up to now is      470.7 secs

     total energy              =   -1780.96634143 Ry
     Harris-Foulkes estimate   =   -1781.00359266 Ry
     estimated scf accuracy    <       0.16244626 Ry

     iteration #  6     ecut=    45.00 Ry     beta=0.35
     Davidson diagonalization with overlap
     ethr =  8.46E-05,  avg # of iterations =  2.3

     total cpu time spent up to now is      563.1 secs

     total energy              =   -1780.97980869 Ry
     Harris-Foulkes estimate   =   -1781.01428106 Ry
     estimated scf accuracy    <       0.21581476 Ry

     iteration #  7     ecut=    45.00 Ry     beta=0.35
     Davidson diagonalization with overlap
     ethr =  8.46E-05,  avg # of iterations =  2.0

     total cpu time spent up to now is      642.6 secs

     total energy              =   -1780.99543752 Ry
     Harris-Foulkes estimate   =   -1781.01932458 Ry
     estimated scf accuracy    <       0.16200201 Ry

     iteration #  8     ecut=    45.00 Ry     beta=0.35
     Davidson diagonalization with overlap
     ethr =  8.44E-05,  avg # of iterations =  1.0

     total cpu time spent up to now is      716.5 secs

     total energy              =   -1780.99544972 Ry
     Harris-Foulkes estimate   =   -1781.00716317 Ry
     estimated scf accuracy    <       0.10848219 Ry

     iteration #  9     ecut=    45.00 Ry     beta=0.35
     Davidson diagonalization with overlap
     ethr =  5.65E-05,  avg # of iterations =  1.0

     total cpu time spent up to now is      789.9 secs

     total energy              =   -1780.99247352 Ry
     Harris-Foulkes estimate   =   -1781.00107309 Ry
     estimated scf accuracy    <       0.08261085 Ry

     iteration # 10     ecut=    45.00 Ry     beta=0.35
     Davidson diagonalization with overlap
     ethr =  4.30E-05,  avg # of iterations =  1.0

     total cpu time spent up to now is      866.1 secs

     total energy              =   -1780.98536744 Ry
     Harris-Foulkes estimate   =   -1780.99725033 Ry
     estimated scf accuracy    <       0.07318673 Ry

     iteration # 11     ecut=    45.00 Ry     beta=0.35
     Davidson diagonalization with overlap
     ethr =  3.81E-05,  avg # of iterations =  2.1

     total cpu time spent up to now is      956.6 secs

     total energy              =   -1780.98492814 Ry
     Harris-Foulkes estimate   =   -1780.99800130 Ry
     estimated scf accuracy    <       0.11565998 Ry

     iteration # 12     ecut=    45.00 Ry     beta=0.35
     Davidson diagonalization with overlap
     ethr =  3.81E-05,  avg # of iterations =  1.0

     total cpu time spent up to now is     1029.5 secs

     total energy              =   -1780.98880858 Ry
     Harris-Foulkes estimate   =   -1780.99278389 Ry
     estimated scf accuracy    <       0.04872756 Ry

     iteration # 13     ecut=    45.00 Ry     beta=0.35
     Davidson diagonalization with overlap
     ethr =  2.54E-05,  avg # of iterations =  1.0

     total cpu time spent up to now is     1103.3 secs

     total energy              =   -1780.99022156 Ry
     Harris-Foulkes estimate   =   -1780.99108948 Ry
     estimated scf accuracy    <       0.01334596 Ry

     iteration # 14     ecut=    45.00 Ry     beta=0.35
     Davidson diagonalization with overlap
     c_bands:  1 eigenvalues not converged
     ethr =  6.95E-06,  avg # of iterations =  3.3

     total cpu time spent up to now is     1212.0 secs

     total energy              =   -1780.98962256 Ry
     Harris-Foulkes estimate   =   -1780.99114738 Ry
     estimated scf accuracy    <       0.01344953 Ry

     iteration # 15     ecut=    45.00 Ry     beta=0.35
     Davidson diagonalization with overlap
     ethr =  6.95E-06,  avg # of iterations =  1.2

     total cpu time spent up to now is     1302.9 secs

     total energy              =   -1780.99034985 Ry
     Harris-Foulkes estimate   =   -1780.99080956 Ry
     estimated scf accuracy    <       0.00394143 Ry

     iteration # 16     ecut=    45.00 Ry     beta=0.35
     Davidson diagonalization with overlap
     ethr =  2.05E-06,  avg # of iterations =  5.1

     total cpu time spent up to now is     1412.3 secs

     total energy              =   -1780.99044812 Ry
     Harris-Foulkes estimate   =   -1780.99065328 Ry
     estimated scf accuracy    <       0.00095407 Ry

     iteration # 17     ecut=    45.00 Ry     beta=0.35
     Davidson diagonalization with overlap
     c_bands:  1 eigenvalues not converged
     ethr =  4.97E-07,  avg # of iterations =  1.1

     total cpu time spent up to now is     1494.6 secs

     total energy              =   -1780.99033732 Ry
     Harris-Foulkes estimate   =   -1780.99076437 Ry
     estimated scf accuracy    <       0.00313787 Ry

     iteration # 18     ecut=    45.00 Ry     beta=0.35
     Davidson diagonalization with overlap
     ethr =  4.97E-07,  avg # of iterations =  1.1

     total cpu time spent up to now is     1568.9 secs

     total energy              =   -1780.99051799 Ry
     Harris-Foulkes estimate   =   -1780.99070300 Ry
     estimated scf accuracy    <       0.00205081 Ry

     iteration # 19     ecut=    45.00 Ry     beta=0.35
     Davidson diagonalization with overlap
     ethr =  4.97E-07,  avg # of iterations =  1.0

     total cpu time spent up to now is     1641.9 secs

     total energy              =   -1780.99062914 Ry
     Harris-Foulkes estimate   =   -1780.99063739 Ry
     estimated scf accuracy    <       0.00015364 Ry

     iteration # 20     ecut=    45.00 Ry     beta=0.35
     Davidson diagonalization with overlap
     ethr =  8.00E-08,  avg # of iterations =  1.0

     total cpu time spent up to now is     1715.1 secs

     total energy              =   -1780.99063322 Ry
     Harris-Foulkes estimate   =   -1780.99063383 Ry
     estimated scf accuracy    <       0.00001216 Ry

     iteration # 21     ecut=    45.00 Ry     beta=0.35
     Davidson diagonalization with overlap
     ethr =  6.33E-09,  avg # of iterations =  1.0

     total cpu time spent up to now is     1789.6 secs

     total energy              =   -1780.99063399 Ry
     Harris-Foulkes estimate   =   -1780.99063466 Ry
     estimated scf accuracy    <       0.00000836 Ry

     iteration # 22     ecut=    45.00 Ry     beta=0.35
     Davidson diagonalization with overlap
     ethr =  4.35E-09,  avg # of iterations =  1.0

     total cpu time spent up to now is     1862.6 secs

     total energy              =   -1780.99063424 Ry
     Harris-Foulkes estimate   =   -1780.99063449 Ry
     estimated scf accuracy    <       0.00000391 Ry

     iteration # 23     ecut=    45.00 Ry     beta=0.35
     Davidson diagonalization with overlap
     ethr =  2.04E-09,  avg # of iterations =  1.0

     total cpu time spent up to now is     1935.6 secs

     total energy              =   -1780.99063438 Ry
     Harris-Foulkes estimate   =   -1780.99063445 Ry
     estimated scf accuracy    <       0.00000102 Ry

     iteration # 24     ecut=    45.00 Ry     beta=0.35
     Davidson diagonalization with overlap
     ethr =  5.30E-10,  avg # of iterations =  1.0

     total cpu time spent up to now is     2008.6 secs

     total energy              =   -1780.99063435 Ry
     Harris-Foulkes estimate   =   -1780.99063462 Ry
     estimated scf accuracy    <       0.00000303 Ry

     iteration # 25     ecut=    45.00 Ry     beta=0.35
     Davidson diagonalization with overlap
     ethr =  5.30E-10,  avg # of iterations =  1.0

     total cpu time spent up to now is     2081.4 secs

     End of self-consistent calculation

     Number of k-points >= 100: set verbosity='high' to print the bands.

     the Fermi energy is     3.4824 ev

!    total energy              =   -1780.99063444 Ry
     Harris-Foulkes estimate   =   -1780.99063448 Ry
     estimated scf accuracy    <       0.00000006 Ry

     The total energy is the sum of the following terms:

     one-electron contribution =   -1185.33176115 Ry
     hartree contribution      =     657.88469171 Ry
     xc contribution           =    -289.00497921 Ry
     ewald contribution        =    -964.58993640 Ry
     smearing contrib. (-TS)   =       0.05135060 Ry

     convergence has been achieved in  25 iterations

     Writing output data file aiid.save
 
     init_run     :     28.33s CPU     30.42s WALL (       1 calls)
     electrons    :   1941.90s CPU   2046.62s WALL (       1 calls)

     Called by init_run:
     wfcinit      :     23.15s CPU     24.33s WALL (       1 calls)
     potinit      :      1.24s CPU      1.37s WALL (       1 calls)

     Called by electrons:
     c_bands      :   1577.02s CPU   1664.66s WALL (      25 calls)
     sum_band     :    324.78s CPU    337.84s WALL (      25 calls)
     v_of_rho     :     16.54s CPU     16.78s WALL (      26 calls)
     newd         :     20.00s CPU     23.31s WALL (      26 calls)
     mix_rho      :      2.06s CPU      2.13s WALL (      25 calls)

     Called by c_bands:
     init_us_2    :     13.11s CPU     13.14s WALL (     714 calls)
     cegterg      :   1299.92s CPU   1345.02s WALL (     350 calls)

     Called by sum_band:
     sum_band:bec :      0.26s CPU      0.27s WALL (     350 calls)
     addusdens    :     25.22s CPU     28.25s WALL (      25 calls)

     Called by *egterg:
     h_psi        :   1047.11s CPU   1076.53s WALL (    1054 calls)
     s_psi        :     62.84s CPU     62.88s WALL (    1054 calls)
     g_psi        :      2.72s CPU      2.72s WALL (     690 calls)
     cdiaghg      :     76.58s CPU     76.67s WALL (    1040 calls)

     Called by h_psi:
     h_psi:pot    :   1043.35s CPU   1072.68s WALL (    1054 calls)
     h_psi:calbec :     56.58s CPU     56.86s WALL (    1054 calls)
     vloc_psi     :    922.65s CPU    951.64s WALL (    1054 calls)
     add_vuspsi   :     64.09s CPU     64.14s WALL (    1054 calls)

     General routines
     calbec       :     85.15s CPU     85.54s WALL (    1404 calls)
     fft          :      7.87s CPU      8.48s WALL (     412 calls)
     ffts         :      0.36s CPU      0.38s WALL (      51 calls)
     fftw         :    947.59s CPU    981.38s WALL (  208446 calls)
     interpolate  :      1.54s CPU      1.62s WALL (      51 calls)
     davcio       :      0.00s CPU      3.32s WALL (      14 calls)
 
     Parallel routines
     fft_scatter  :    468.63s CPU    497.37s WALL (  208909 calls)
 
     PWSCF        : 33m10.43s CPU    36m33.91s WALL

 
   This run was terminated on:  14:16:48   3May2017            

=------------------------------------------------------------------------------=
   JOB DONE.
=------------------------------------------------------------------------------=
