
     Program PWSCF v.6.1 (svn rev. 13369) starts on  2May2017 at 10: 8:14 

     This program is part of the open-source Quantum ESPRESSO suite
     for quantum simulation of materials; please cite
         "P. Giannozzi et al., J. Phys.:Condens. Matter 21 395502 (2009);
          URL http://www.quantum-espresso.org", 
     in publications or presentations arising from this work. More details at
     http://www.quantum-espresso.org/quote

     Parallel version (MPI), running on   512 processors
     K-points division:     npool     =     256
     R & G space division:  proc/nbgrp/npool/nimage =       2
     Reading input from pw.in

     Current dimensions of program PWSCF are:
     Max number of different atomic species (ntypx) = 10
     Max number of k-points (npk) =  40000
     Max angular momentum in pseudopotentials (lmaxx) =  3

     Subspace diagonalization in iterative solution of the eigenvalue problem:
     a serial algorithm will be used

 
     Parallelization info
     --------------------
     sticks:   dense  smooth     PW     G-vecs:    dense   smooth      PW
     Min        2688    1356    384               130124    46108    7179
     Max        2689    1357    385               130127    46109    7182
     Sum        5377    2713    769               260251    92217   14361
 


     bravais-lattice index     =            0
     lattice parameter (alat)  =      14.7236  a.u.
     unit-cell volume          =    2256.9821 (a.u.)^3
     number of atoms/cell      =           24
     number of atomic types    =            2
     number of electrons       =       192.00
     number of Kohn-Sham states=          115
     kinetic-energy cutoff     =      45.0000  Ry
     charge density cutoff     =     360.0000  Ry
     convergence threshold     =      2.4E-07
     mixing beta               =       0.3500
     number of iterations used =            8  plain     mixing
     Exchange-correlation      = SLA  PW   PBE  PBE ( 1  4  3  4 0 0)

     celldm(1)=  14.723612  celldm(2)=   0.000000  celldm(3)=   0.000000
     celldm(4)=   0.000000  celldm(5)=   0.000000  celldm(6)=   0.000000

     crystal axes: (cart. coord. in units of alat)
               a(1) = (   1.000000   0.000000   0.000000 )  
               a(2) = (  -0.500000   0.707107  -0.500000 )  
               a(3) = (   0.000000   0.000000   1.000000 )  

     reciprocal axes: (cart. coord. in units 2 pi/alat)
               b(1) = (  1.000000  0.707107  0.000000 )  
               b(2) = (  0.000000  1.414214  0.000000 )  
               b(3) = (  0.000000  0.707107  1.000000 )  


     PseudoPot. # 1 for Na read from file:
     ./pseudo/Na_pbe_v1.uspp.F.UPF
     MD5 check sum: 76a99c7e9422403d3e93cbc85ab7bccb
     Pseudo is Ultrasoft, Zval =  9.0
     Generated by new atomic code, or converted to UPF format
     Using radial grid of  819 points,  5 beta functions with: 
                l(1) =   0
                l(2) =   0
                l(3) =   1
                l(4) =   1
                l(5) =   2
     Q(r) pseudized with  8 coefficients,  rinner =    1.250   1.250   1.250
                                                       1.250   1.250

     PseudoPot. # 2 for O  read from file:
     ./pseudo/O_pbe_v1.2.uspp.F.UPF
     MD5 check sum: 734c27235a0248c51dbae37a1fbe46ec
     Pseudo is Ultrasoft + core correction, Zval =  6.0
     Generated by new atomic code, or converted to UPF format
     Using radial grid of  737 points,  5 beta functions with: 
                l(1) =   0
                l(2) =   0
                l(3) =   1
                l(4) =   1
                l(5) =   2
     Q(r) pseudized with  8 coefficients,  rinner =    0.900   0.900   0.900
                                                       0.900   0.900

     atomic species   valence    mass     pseudopotential
        Na             9.00    22.98977     Na( 1.00)
        O              6.00    15.99940     O ( 1.00)

     No symmetry found



   Cartesian axes

     site n.     atom                  positions (alat units)
         1           Na  tau(   1) = (   0.2480006   0.1816205  -0.0088298  )
         2           Na  tau(   2) = (   0.2442276   0.1751519   0.5083346  )
         3           Na  tau(   3) = (   0.0079029   0.5296288  -0.2434824  )
         4           Na  tau(   4) = (   0.0070265   0.5229028   0.2490560  )
         5           Na  tau(   5) = (   0.7574231   0.1748804  -0.0068357  )
         6           Na  tau(   6) = (   0.7456596   0.1831956   0.4932632  )
         7           Na  tau(   7) = (   0.4909560   0.5344985  -0.2474988  )
         8           Na  tau(   8) = (   0.5008402   0.5389394   0.2444682  )
         9           Na  tau(   9) = (   0.0081340   0.1824308   0.2472990  )
        10           Na  tau(  10) = (  -0.0052220   0.1850177   0.7467997  )
        11           Na  tau(  11) = (  -0.2448280   0.5232254   0.0053104  )
        12           Na  tau(  12) = (  -0.2549976   0.5244033   0.5067323  )
        13           Na  tau(  13) = (   0.5087954   0.1717887   0.2482144  )
        14           Na  tau(  14) = (   0.4912417   0.1799920   0.7457127  )
        15           Na  tau(  15) = (   0.2465708   0.5250319   0.0080991  )
        16           Na  tau(  16) = (   0.2556700   0.5228488   0.4958397  )
        17           O   tau(  17) = (   0.0004461   0.0019119   0.9899217  )
        18           O   tau(  18) = (   0.4967317   0.6976460   0.0022886  )
        19           O   tau(  19) = (   0.7550405   0.3461905   0.7550801  )
        20           O   tau(  20) = (   0.7411253   0.3521528   0.2450297  )
        21           O   tau(  21) = (   0.0027894   0.6978001   0.5033214  )
        22           O   tau(  22) = (  -0.0073866   0.7025188  -0.0054603  )
        23           O   tau(  23) = (   0.2493128   0.3515152   0.7399601  )
        24           O   tau(  24) = (   0.2403927   0.3502103   0.2486036  )

     number of k points=  1756  Marzari-Vanderbilt smearing, width (Ry)=  0.0200

     Number of k-points >= 100: set verbosity='high' to print them.

     Dense  grid:   260251 G-vectors     FFT dimensions: (  90,  90,  90)

     Smooth grid:    92217 G-vectors     FFT dimensions: (  64,  64,  64)

     Estimated max dynamical RAM per process >     274.38MB

     Estimated total allocated dynamical RAM >  140481.14MB

     Check: negative/imaginary core charge=   -0.000001    0.000000

     Initial potential from superposition of free atoms

     starting charge  191.89934, renormalised to  192.00000
     Starting wfc are  112 randomized atomic wfcs +    3 random wfc

     total cpu time spent up to now is       23.0 secs

     per-process dynamical memory:   207.2 Mb

     Self-consistent Calculation

     iteration #  1     ecut=    45.00 Ry     beta=0.35
     Davidson diagonalization with overlap
     ethr =  1.00E-02,  avg # of iterations =  4.2

     total cpu time spent up to now is       77.3 secs

     total energy              =   -1779.48735775 Ry
     Harris-Foulkes estimate   =   -1782.87487785 Ry
     estimated scf accuracy    <       6.84637953 Ry

     iteration #  2     ecut=    45.00 Ry     beta=0.35
     Davidson diagonalization with overlap
     ethr =  3.57E-03,  avg # of iterations =  2.0

     total cpu time spent up to now is      123.8 secs

     total energy              =   -1780.86140505 Ry
     Harris-Foulkes estimate   =   -1781.14890463 Ry
     estimated scf accuracy    <       0.87078655 Ry

     iteration #  3     ecut=    45.00 Ry     beta=0.35
     Davidson diagonalization with overlap
     ethr =  4.54E-04,  avg # of iterations =  2.1

     total cpu time spent up to now is      169.2 secs

     total energy              =   -1780.96337471 Ry
     Harris-Foulkes estimate   =   -1781.07005322 Ry
     estimated scf accuracy    <       0.49965667 Ry

     iteration #  4     ecut=    45.00 Ry     beta=0.35
     Davidson diagonalization with overlap
     ethr =  2.60E-04,  avg # of iterations =  2.0

     total cpu time spent up to now is      213.2 secs

     total energy              =   -1780.99020246 Ry
     Harris-Foulkes estimate   =   -1781.03717553 Ry
     estimated scf accuracy    <       0.20560151 Ry

     iteration #  5     ecut=    45.00 Ry     beta=0.35
     Davidson diagonalization with overlap
     ethr =  1.07E-04,  avg # of iterations =  2.2

     total cpu time spent up to now is      261.2 secs

     total energy              =   -1780.96635601 Ry
     Harris-Foulkes estimate   =   -1781.00358281 Ry
     estimated scf accuracy    <       0.16226944 Ry

     iteration #  6     ecut=    45.00 Ry     beta=0.35
     Davidson diagonalization with overlap
     ethr =  8.45E-05,  avg # of iterations =  2.3

     total cpu time spent up to now is      310.2 secs

     total energy              =   -1780.97981760 Ry
     Harris-Foulkes estimate   =   -1781.01430420 Ry
     estimated scf accuracy    <       0.21589039 Ry

     iteration #  7     ecut=    45.00 Ry     beta=0.35
     Davidson diagonalization with overlap
     ethr =  8.45E-05,  avg # of iterations =  2.0

     total cpu time spent up to now is      353.3 secs

     total energy              =   -1780.99545161 Ry
     Harris-Foulkes estimate   =   -1781.01934290 Ry
     estimated scf accuracy    <       0.16204634 Ry

     iteration #  8     ecut=    45.00 Ry     beta=0.35
     Davidson diagonalization with overlap
     ethr =  8.44E-05,  avg # of iterations =  1.0

     total cpu time spent up to now is      393.9 secs

     total energy              =   -1780.99543328 Ry
     Harris-Foulkes estimate   =   -1781.00715726 Ry
     estimated scf accuracy    <       0.10872834 Ry

     iteration #  9     ecut=    45.00 Ry     beta=0.35
     Davidson diagonalization with overlap
     ethr =  5.66E-05,  avg # of iterations =  1.0

     total cpu time spent up to now is      432.0 secs

     total energy              =   -1780.99245762 Ry
     Harris-Foulkes estimate   =   -1781.00107846 Ry
     estimated scf accuracy    <       0.08266409 Ry

     iteration # 10     ecut=    45.00 Ry     beta=0.35
     Davidson diagonalization with overlap
     ethr =  4.31E-05,  avg # of iterations =  1.0

     total cpu time spent up to now is      474.0 secs

     total energy              =   -1780.98535848 Ry
     Harris-Foulkes estimate   =   -1780.99725350 Ry
     estimated scf accuracy    <       0.07364382 Ry

     iteration # 11     ecut=    45.00 Ry     beta=0.35
     Davidson diagonalization with overlap
     ethr =  3.84E-05,  avg # of iterations =  2.1

     total cpu time spent up to now is      520.7 secs

     total energy              =   -1780.98492548 Ry
     Harris-Foulkes estimate   =   -1780.99799874 Ry
     estimated scf accuracy    <       0.11598082 Ry

     iteration # 12     ecut=    45.00 Ry     beta=0.35
     Davidson diagonalization with overlap
     ethr =  3.84E-05,  avg # of iterations =  1.0

     total cpu time spent up to now is      558.8 secs

     total energy              =   -1780.98881169 Ry
     Harris-Foulkes estimate   =   -1780.99279620 Ry
     estimated scf accuracy    <       0.04831956 Ry

     iteration # 13     ecut=    45.00 Ry     beta=0.35
     Davidson diagonalization with overlap
     ethr =  2.52E-05,  avg # of iterations =  1.0

     total cpu time spent up to now is      598.2 secs

     total energy              =   -1780.99021614 Ry
     Harris-Foulkes estimate   =   -1780.99109579 Ry
     estimated scf accuracy    <       0.01354631 Ry

     iteration # 14     ecut=    45.00 Ry     beta=0.35
     Davidson diagonalization with overlap
     c_bands:  1 eigenvalues not converged
     ethr =  7.06E-06,  avg # of iterations =  3.2

     total cpu time spent up to now is      655.1 secs

     total energy              =   -1780.98962611 Ry
     Harris-Foulkes estimate   =   -1780.99114445 Ry
     estimated scf accuracy    <       0.01339013 Ry

     iteration # 15     ecut=    45.00 Ry     beta=0.35
     Davidson diagonalization with overlap
     ethr =  6.97E-06,  avg # of iterations =  1.2

     total cpu time spent up to now is      704.6 secs

     total energy              =   -1780.99034999 Ry
     Harris-Foulkes estimate   =   -1780.99081071 Ry
     estimated scf accuracy    <       0.00396565 Ry

     iteration # 16     ecut=    45.00 Ry     beta=0.35
     Davidson diagonalization with overlap
     ethr =  2.07E-06,  avg # of iterations =  5.1

     total cpu time spent up to now is      762.1 secs

     total energy              =   -1780.99045618 Ry
     Harris-Foulkes estimate   =   -1780.99065061 Ry
     estimated scf accuracy    <       0.00088654 Ry

     iteration # 17     ecut=    45.00 Ry     beta=0.35
     Davidson diagonalization with overlap
     ethr =  4.62E-07,  avg # of iterations =  1.2

     total cpu time spent up to now is      808.9 secs

     total energy              =   -1780.99033575 Ry
     Harris-Foulkes estimate   =   -1780.99076630 Ry
     estimated scf accuracy    <       0.00316334 Ry

     iteration # 18     ecut=    45.00 Ry     beta=0.35
     Davidson diagonalization with overlap
     ethr =  4.62E-07,  avg # of iterations =  1.2

     total cpu time spent up to now is      848.1 secs

     total energy              =   -1780.99051872 Ry
     Harris-Foulkes estimate   =   -1780.99070288 Ry
     estimated scf accuracy    <       0.00204439 Ry

     iteration # 19     ecut=    45.00 Ry     beta=0.35
     Davidson diagonalization with overlap
     ethr =  4.62E-07,  avg # of iterations =  1.0

     total cpu time spent up to now is      886.2 secs

     total energy              =   -1780.99062926 Ry
     Harris-Foulkes estimate   =   -1780.99063730 Ry
     estimated scf accuracy    <       0.00014986 Ry

     iteration # 20     ecut=    45.00 Ry     beta=0.35
     Davidson diagonalization with overlap
     ethr =  7.81E-08,  avg # of iterations =  1.0

     total cpu time spent up to now is      924.3 secs

     total energy              =   -1780.99063327 Ry
     Harris-Foulkes estimate   =   -1780.99063384 Ry
     estimated scf accuracy    <       0.00001182 Ry

     iteration # 21     ecut=    45.00 Ry     beta=0.35
     Davidson diagonalization with overlap
     ethr =  6.16E-09,  avg # of iterations =  1.0

     total cpu time spent up to now is      962.6 secs

     total energy              =   -1780.99063413 Ry
     Harris-Foulkes estimate   =   -1780.99063462 Ry
     estimated scf accuracy    <       0.00000748 Ry

     iteration # 22     ecut=    45.00 Ry     beta=0.35
     Davidson diagonalization with overlap
     ethr =  3.89E-09,  avg # of iterations =  1.0

     total cpu time spent up to now is     1000.6 secs

     total energy              =   -1780.99063427 Ry
     Harris-Foulkes estimate   =   -1780.99063449 Ry
     estimated scf accuracy    <       0.00000286 Ry

     iteration # 23     ecut=    45.00 Ry     beta=0.35
     Davidson diagonalization with overlap
     ethr =  1.49E-09,  avg # of iterations =  1.0

     total cpu time spent up to now is     1038.7 secs

     total energy              =   -1780.99063439 Ry
     Harris-Foulkes estimate   =   -1780.99063446 Ry
     estimated scf accuracy    <       0.00000126 Ry

     iteration # 24     ecut=    45.00 Ry     beta=0.35
     Davidson diagonalization with overlap
     ethr =  6.57E-10,  avg # of iterations =  1.0

     total cpu time spent up to now is     1076.9 secs

     total energy              =   -1780.99063439 Ry
     Harris-Foulkes estimate   =   -1780.99063458 Ry
     estimated scf accuracy    <       0.00000205 Ry

     iteration # 25     ecut=    45.00 Ry     beta=0.35
     Davidson diagonalization with overlap
     ethr =  6.57E-10,  avg # of iterations =  1.0

     total cpu time spent up to now is     1114.9 secs

     End of self-consistent calculation

     Number of k-points >= 100: set verbosity='high' to print the bands.

     the Fermi energy is     3.4824 ev

!    total energy              =   -1780.99063445 Ry
     Harris-Foulkes estimate   =   -1780.99063448 Ry
     estimated scf accuracy    <       0.00000006 Ry

     The total energy is the sum of the following terms:

     one-electron contribution =   -1185.33175300 Ry
     hartree contribution      =     657.88468144 Ry
     xc contribution           =    -289.00497709 Ry
     ewald contribution        =    -964.58993640 Ry
     smearing contrib. (-TS)   =       0.05135060 Ry

     convergence has been achieved in  25 iterations

     Writing output data file aiid.save
 
     init_run     :     16.84s CPU     18.04s WALL (       1 calls)
     electrons    :   1036.64s CPU   1092.24s WALL (       1 calls)

     Called by init_run:
     wfcinit      :     11.26s CPU     11.61s WALL (       1 calls)
     potinit      :      1.10s CPU      1.32s WALL (       1 calls)

     Called by electrons:
     c_bands      :    815.19s CPU    858.85s WALL (      25 calls)
     sum_band     :    181.22s CPU    189.28s WALL (      25 calls)
     v_of_rho     :     16.57s CPU     16.86s WALL (      26 calls)
     newd         :     19.79s CPU     23.08s WALL (      26 calls)
     mix_rho      :      2.06s CPU      2.18s WALL (      25 calls)

     Called by c_bands:
     init_us_2    :      6.32s CPU      6.34s WALL (     357 calls)
     cegterg      :    643.92s CPU    666.56s WALL (     175 calls)

     Called by sum_band:
     sum_band:bec :      0.13s CPU      0.13s WALL (     175 calls)
     addusdens    :     26.04s CPU     28.85s WALL (      25 calls)

     Called by *egterg:
     h_psi        :    512.38s CPU    527.14s WALL (     568 calls)
     s_psi        :     30.74s CPU     30.75s WALL (     568 calls)
     g_psi        :      1.33s CPU      1.34s WALL (     386 calls)
     cdiaghg      :     42.38s CPU     42.42s WALL (     561 calls)

     Called by h_psi:
     h_psi:pot    :    510.26s CPU    524.98s WALL (     568 calls)
     h_psi:calbec :     27.51s CPU     27.64s WALL (     568 calls)
     vloc_psi     :    451.51s CPU    466.08s WALL (     568 calls)
     add_vuspsi   :     31.23s CPU     31.24s WALL (     568 calls)

     General routines
     calbec       :     41.09s CPU     41.27s WALL (     743 calls)
     fft          :      8.51s CPU      9.20s WALL (     412 calls)
     ffts         :      0.29s CPU      0.31s WALL (      51 calls)
     fftw         :    465.19s CPU    482.30s WALL (  104341 calls)
     interpolate  :      1.43s CPU      1.51s WALL (      51 calls)
     davcio       :      0.00s CPU      1.15s WALL (       7 calls)
 
     Parallel routines
     fft_scatter  :    228.30s CPU    243.21s WALL (  104804 calls)
 
     PWSCF        : 17m53.04s CPU    20m38.49s WALL

 
   This run was terminated on:  10:28:52   2May2017            

=------------------------------------------------------------------------------=
   JOB DONE.
=------------------------------------------------------------------------------=
