
     Program PWSCF v.6.2MaX starts on 19Sep2017 at 11:54:16 

     This program is part of the open-source Quantum ESPRESSO suite
     for quantum simulation of materials; please cite
         "P. Giannozzi et al., J. Phys.:Condens. Matter 21 395502 (2009);
          URL http://www.quantum-espresso.org", 
     in publications or presentations arising from this work. More details at
     http://www.quantum-espresso.org/quote

     Parallel version (MPI), running on   256 processors
     K-points division:     npool     =      64
     R & G space division:  proc/nbgrp/npool/nimage =       4
     Reading input from aiida.in

     Current dimensions of program PWSCF are:
     Max number of different atomic species (ntypx) = 10
     Max number of k-points (npk) =  40000
     Max angular momentum in pseudopotentials (lmaxx) =  3

     Subspace diagonalization in iterative solution of the eigenvalue problem:
     a serial algorithm will be used

 
     Parallelization info
     --------------------
     sticks:   dense  smooth     PW     G-vecs:    dense   smooth      PW
     Min        1344     677    192                65062    23054    3589
     Max        1345     679    193                65065    23055    3593
     Sum        5377    2713    769               260251    92217   14361
 


     bravais-lattice index     =            0
     lattice parameter (alat)  =      14.7236  a.u.
     unit-cell volume          =    2256.9821 (a.u.)^3
     number of atoms/cell      =           24
     number of atomic types    =            2
     number of electrons       =       192.00
     number of Kohn-Sham states=          115
     kinetic-energy cutoff     =      45.0000  Ry
     charge density cutoff     =     360.0000  Ry
     convergence threshold     =      2.4E-07
     mixing beta               =       0.3500
     number of iterations used =            8  plain     mixing
     Exchange-correlation      = SLA  PW   PBE  PBE ( 1  4  3  4 0 0)

     celldm(1)=  14.723612  celldm(2)=   0.000000  celldm(3)=   0.000000
     celldm(4)=   0.000000  celldm(5)=   0.000000  celldm(6)=   0.000000

     crystal axes: (cart. coord. in units of alat)
               a(1) = (   1.000000   0.000000   0.000000 )  
               a(2) = (  -0.500000   0.707107  -0.500000 )  
               a(3) = (   0.000000   0.000000   1.000000 )  

     reciprocal axes: (cart. coord. in units 2 pi/alat)
               b(1) = (  1.000000  0.707107  0.000000 )  
               b(2) = (  0.000000  1.414214  0.000000 )  
               b(3) = (  0.000000  0.707107  1.000000 )  


     PseudoPot. # 1 for Na read from file:
     ./pseudo/Na_pbe_v1.uspp.F.UPF
     MD5 check sum: 76a99c7e9422403d3e93cbc85ab7bccb
     Pseudo is Ultrasoft, Zval =  9.0
     Generated by new atomic code, or converted to UPF format
     Using radial grid of  819 points,  5 beta functions with: 
                l(1) =   0
                l(2) =   0
                l(3) =   1
                l(4) =   1
                l(5) =   2
     Q(r) pseudized with  8 coefficients,  rinner =    1.250   1.250   1.250
                                                       1.250   1.250

     PseudoPot. # 2 for O  read from file:
     ./pseudo/O_pbe_v1.2.uspp.F.UPF
     MD5 check sum: 734c27235a0248c51dbae37a1fbe46ec
     Pseudo is Ultrasoft + core correction, Zval =  6.0
     Generated by new atomic code, or converted to UPF format
     Using radial grid of  737 points,  5 beta functions with: 
                l(1) =   0
                l(2) =   0
                l(3) =   1
                l(4) =   1
                l(5) =   2
     Q(r) pseudized with  8 coefficients,  rinner =    0.900   0.900   0.900
                                                       0.900   0.900

     atomic species   valence    mass     pseudopotential
        Na             9.00    22.98977     Na( 1.00)
        O              6.00    15.99940     O ( 1.00)

     No symmetry found



   Cartesian axes

     site n.     atom                  positions (alat units)
         1           Na  tau(   1) = (   0.2480006   0.1816205  -0.0088298  )
         2           Na  tau(   2) = (   0.2442276   0.1751519   0.5083346  )
         3           Na  tau(   3) = (   0.0079029   0.5296288  -0.2434824  )
         4           Na  tau(   4) = (   0.0070265   0.5229028   0.2490560  )
         5           Na  tau(   5) = (   0.7574231   0.1748804  -0.0068357  )
         6           Na  tau(   6) = (   0.7456596   0.1831956   0.4932632  )
         7           Na  tau(   7) = (   0.4909560   0.5344985  -0.2474988  )
         8           Na  tau(   8) = (   0.5008402   0.5389394   0.2444682  )
         9           Na  tau(   9) = (   0.0081340   0.1824308   0.2472990  )
        10           Na  tau(  10) = (  -0.0052220   0.1850177   0.7467997  )
        11           Na  tau(  11) = (  -0.2448280   0.5232254   0.0053104  )
        12           Na  tau(  12) = (  -0.2549976   0.5244033   0.5067323  )
        13           Na  tau(  13) = (   0.5087954   0.1717887   0.2482144  )
        14           Na  tau(  14) = (   0.4912417   0.1799920   0.7457127  )
        15           Na  tau(  15) = (   0.2465708   0.5250319   0.0080991  )
        16           Na  tau(  16) = (   0.2556700   0.5228488   0.4958397  )
        17           O   tau(  17) = (   0.0004461   0.0019119   0.9899217  )
        18           O   tau(  18) = (   0.4967317   0.6976460   0.0022886  )
        19           O   tau(  19) = (   0.7550405   0.3461905   0.7550801  )
        20           O   tau(  20) = (   0.7411253   0.3521528   0.2450297  )
        21           O   tau(  21) = (   0.0027894   0.6978001   0.5033214  )
        22           O   tau(  22) = (  -0.0073866   0.7025188  -0.0054603  )
        23           O   tau(  23) = (   0.2493128   0.3515152   0.7399601  )
        24           O   tau(  24) = (   0.2403927   0.3502103   0.2486036  )

     number of k points=  1756  Marzari-Vanderbilt smearing, width (Ry)=  0.0200

     Number of k-points >= 100: set verbosity='high' to print them.

     Dense  grid:   260251 G-vectors     FFT dimensions: (  90,  90,  90)

     Smooth grid:    92217 G-vectors     FFT dimensions: (  64,  64,  64)

     Estimated max dynamical RAM per process >     327.77 MB

     Estimated total dynamical RAM >      81.94 GB

     Check: negative/imaginary core charge=   -0.000001    0.000000

     Initial potential from superposition of free atoms

     starting charge  191.89934, renormalised to  192.00000
     Starting wfc are  112 randomized atomic wfcs +    3 random wfc

     total cpu time spent up to now is       36.1 secs

     Self-consistent Calculation

     iteration #  1     ecut=    45.00 Ry     beta= 0.35
     Davidson diagonalization with overlap
     ethr =  1.00E-02,  avg # of iterations =  4.2

     total cpu time spent up to now is      141.6 secs

     total energy              =   -1779.48767289 Ry
     Harris-Foulkes estimate   =   -1782.87525202 Ry
     estimated scf accuracy    <       6.84649643 Ry

     iteration #  2     ecut=    45.00 Ry     beta= 0.35
     Davidson diagonalization with overlap
     ethr =  3.57E-03,  avg # of iterations =  2.0

     total cpu time spent up to now is      232.4 secs

     total energy              =   -1780.86176767 Ry
     Harris-Foulkes estimate   =   -1781.14927622 Ry
     estimated scf accuracy    <       0.87081289 Ry

     iteration #  3     ecut=    45.00 Ry     beta= 0.35
     Davidson diagonalization with overlap
     ethr =  4.54E-04,  avg # of iterations =  2.1

     total cpu time spent up to now is      328.1 secs

     total energy              =   -1780.96373990 Ry
     Harris-Foulkes estimate   =   -1781.07041829 Ry
     estimated scf accuracy    <       0.49966079 Ry

     iteration #  4     ecut=    45.00 Ry     beta= 0.35
     Davidson diagonalization with overlap
     ethr =  2.60E-04,  avg # of iterations =  2.0

     total cpu time spent up to now is      418.4 secs

     total energy              =   -1780.99056820 Ry
     Harris-Foulkes estimate   =   -1781.03754193 Ry
     estimated scf accuracy    <       0.20560450 Ry

     iteration #  5     ecut=    45.00 Ry     beta= 0.35
     Davidson diagonalization with overlap
     ethr =  1.07E-04,  avg # of iterations =  2.2

     total cpu time spent up to now is      520.7 secs

     total energy              =   -1780.96672513 Ry
     Harris-Foulkes estimate   =   -1781.00395004 Ry
     estimated scf accuracy    <       0.16225368 Ry

     iteration #  6     ecut=    45.00 Ry     beta= 0.35
     Davidson diagonalization with overlap
     ethr =  8.45E-05,  avg # of iterations =  2.3

     total cpu time spent up to now is      626.1 secs

     total energy              =   -1780.98021022 Ry
     Harris-Foulkes estimate   =   -1781.01467559 Ry
     estimated scf accuracy    <       0.21575133 Ry

     iteration #  7     ecut=    45.00 Ry     beta= 0.35
     Davidson diagonalization with overlap
     ethr =  8.45E-05,  avg # of iterations =  2.0

     total cpu time spent up to now is      712.7 secs

     total energy              =   -1780.99580557 Ry
     Harris-Foulkes estimate   =   -1781.01970844 Ry
     estimated scf accuracy    <       0.16221136 Ry

     iteration #  8     ecut=    45.00 Ry     beta= 0.35
     Davidson diagonalization with overlap
     ethr =  8.45E-05,  avg # of iterations =  1.0

     total cpu time spent up to now is      792.7 secs

     total energy              =   -1780.99580094 Ry
     Harris-Foulkes estimate   =   -1781.00751307 Ry
     estimated scf accuracy    <       0.10849687 Ry

     iteration #  9     ecut=    45.00 Ry     beta= 0.35
     Davidson diagonalization with overlap
     ethr =  5.65E-05,  avg # of iterations =  1.0

     total cpu time spent up to now is      873.0 secs

     total energy              =   -1780.99277454 Ry
     Harris-Foulkes estimate   =   -1781.00142200 Ry
     estimated scf accuracy    <       0.08257706 Ry

     iteration # 10     ecut=    45.00 Ry     beta= 0.35
     Davidson diagonalization with overlap
     ethr =  4.30E-05,  avg # of iterations =  1.0

     total cpu time spent up to now is      953.6 secs

     total energy              =   -1780.98576313 Ry
     Harris-Foulkes estimate   =   -1780.99760818 Ry
     estimated scf accuracy    <       0.07380383 Ry

     iteration # 11     ecut=    45.00 Ry     beta= 0.35
     Davidson diagonalization with overlap
     ethr =  3.84E-05,  avg # of iterations =  2.1

     total cpu time spent up to now is     1056.0 secs

     total energy              =   -1780.98530063 Ry
     Harris-Foulkes estimate   =   -1780.99837185 Ry
     estimated scf accuracy    <       0.11608636 Ry

     iteration # 12     ecut=    45.00 Ry     beta= 0.35
     Davidson diagonalization with overlap
     ethr =  3.84E-05,  avg # of iterations =  1.0

     total cpu time spent up to now is     1135.7 secs

     total energy              =   -1780.98918061 Ry
     Harris-Foulkes estimate   =   -1780.99315563 Ry
     estimated scf accuracy    <       0.04844517 Ry

     iteration # 13     ecut=    45.00 Ry     beta= 0.35
     Davidson diagonalization with overlap
     ethr =  2.52E-05,  avg # of iterations =  1.0

     total cpu time spent up to now is     1218.2 secs

     total energy              =   -1780.99057691 Ry
     Harris-Foulkes estimate   =   -1780.99146402 Ry
     estimated scf accuracy    <       0.01358307 Ry

     iteration # 14     ecut=    45.00 Ry     beta= 0.35
     Davidson diagonalization with overlap
     ethr =  7.07E-06,  avg # of iterations =  3.2

     total cpu time spent up to now is     1351.1 secs

     total energy              =   -1780.99001470 Ry
     Harris-Foulkes estimate   =   -1780.99149933 Ry
     estimated scf accuracy    <       0.01312622 Ry

     iteration # 15     ecut=    45.00 Ry     beta= 0.35
     Davidson diagonalization with overlap
     ethr =  6.84E-06,  avg # of iterations =  1.3

     total cpu time spent up to now is     1455.6 secs

     total energy              =   -1780.99071756 Ry
     Harris-Foulkes estimate   =   -1780.99117629 Ry
     estimated scf accuracy    <       0.00396519 Ry

     iteration # 16     ecut=    45.00 Ry     beta= 0.35
     Davidson diagonalization with overlap
     ethr =  2.07E-06,  avg # of iterations =  5.0

     total cpu time spent up to now is     1592.3 secs

     total energy              =   -1780.99082610 Ry
     Harris-Foulkes estimate   =   -1780.99101540 Ry
     estimated scf accuracy    <       0.00085185 Ry

     iteration # 17     ecut=    45.00 Ry     beta= 0.35
     Davidson diagonalization with overlap
     ethr =  4.44E-07,  avg # of iterations =  1.2

     total cpu time spent up to now is     1682.2 secs

     total energy              =   -1780.99069865 Ry
     Harris-Foulkes estimate   =   -1780.99113485 Ry
     estimated scf accuracy    <       0.00319873 Ry

     iteration # 18     ecut=    45.00 Ry     beta= 0.35
     Davidson diagonalization with overlap
     ethr =  4.44E-07,  avg # of iterations =  1.3

     total cpu time spent up to now is     1763.5 secs

     total energy              =   -1780.99088333 Ry
     Harris-Foulkes estimate   =   -1780.99106967 Ry
     estimated scf accuracy    <       0.00206318 Ry

     iteration # 19     ecut=    45.00 Ry     beta= 0.35
     Davidson diagonalization with overlap
     ethr =  4.44E-07,  avg # of iterations =  1.0

     total cpu time spent up to now is     1842.6 secs

     total energy              =   -1780.99099527 Ry
     Harris-Foulkes estimate   =   -1780.99100359 Ry
     estimated scf accuracy    <       0.00015431 Ry

     iteration # 20     ecut=    45.00 Ry     beta= 0.35
     Davidson diagonalization with overlap
     ethr =  8.04E-08,  avg # of iterations =  1.0

     total cpu time spent up to now is     1921.6 secs

     total energy              =   -1780.99099941 Ry
     Harris-Foulkes estimate   =   -1780.99099995 Ry
     estimated scf accuracy    <       0.00001165 Ry

     iteration # 21     ecut=    45.00 Ry     beta= 0.35
     Davidson diagonalization with overlap
     ethr =  6.07E-09,  avg # of iterations =  1.0

     total cpu time spent up to now is     2000.7 secs

     total energy              =   -1780.99100036 Ry
     Harris-Foulkes estimate   =   -1780.99100069 Ry
     estimated scf accuracy    <       0.00000666 Ry

     iteration # 22     ecut=    45.00 Ry     beta= 0.35
     Davidson diagonalization with overlap
     ethr =  3.47E-09,  avg # of iterations =  1.0

     total cpu time spent up to now is     2079.9 secs

     total energy              =   -1780.99100042 Ry
     Harris-Foulkes estimate   =   -1780.99100060 Ry
     estimated scf accuracy    <       0.00000195 Ry

     iteration # 23     ecut=    45.00 Ry     beta= 0.35
     Davidson diagonalization with overlap
     ethr =  1.01E-09,  avg # of iterations =  1.0

     total cpu time spent up to now is     2158.8 secs

     total energy              =   -1780.99100049 Ry
     Harris-Foulkes estimate   =   -1780.99100060 Ry
     estimated scf accuracy    <       0.00000192 Ry

     iteration # 24     ecut=    45.00 Ry     beta= 0.35
     Davidson diagonalization with overlap
     ethr =  9.99E-10,  avg # of iterations =  1.0

     total cpu time spent up to now is     2237.7 secs

     total energy              =   -1780.99100053 Ry
     Harris-Foulkes estimate   =   -1780.99100065 Ry
     estimated scf accuracy    <       0.00000126 Ry

     iteration # 25     ecut=    45.00 Ry     beta= 0.35
     Davidson diagonalization with overlap
     ethr =  6.54E-10,  avg # of iterations =  1.0

     total cpu time spent up to now is     2316.8 secs

     End of self-consistent calculation

     Number of k-points >= 100: set verbosity='high' to print the bands.

     the Fermi energy is     3.4824 ev

!    total energy              =   -1780.99100056 Ry
     Harris-Foulkes estimate   =   -1780.99100060 Ry
     estimated scf accuracy    <       0.00000005 Ry

     The total energy is the sum of the following terms:

     one-electron contribution =   -1185.33181545 Ry
     hartree contribution      =     657.88475711 Ry
     xc contribution           =    -289.00535640 Ry
     ewald contribution        =    -964.58993640 Ry
     smearing contrib. (-TS)   =       0.05135058 Ry

     convergence has been achieved in  25 iterations

     Writing output data file aiid.save
 
     init_run     :     29.23s CPU     31.29s WALL (       1 calls)
     electrons    :   2184.69s CPU   2280.83s WALL (       1 calls)

     Called by init_run:
     wfcinit      :     26.52s CPU     27.64s WALL (       1 calls)
     potinit      :      0.63s CPU      0.78s WALL (       1 calls)

     Called by electrons:
     c_bands      :   1817.62s CPU   1904.16s WALL (      25 calls)
     sum_band     :    345.32s CPU    353.10s WALL (      25 calls)
     v_of_rho     :      9.18s CPU      9.24s WALL (      26 calls)
     newd         :     10.50s CPU     12.10s WALL (      26 calls)
     mix_rho      :      1.26s CPU      1.32s WALL (      25 calls)

     Called by c_bands:
     init_us_2    :     15.01s CPU     15.04s WALL (    1428 calls)
     cegterg      :   1588.34s CPU   1638.14s WALL (     700 calls)

     Called by sum_band:
     sum_band:bec :      0.56s CPU      0.57s WALL (     700 calls)
     addusdens    :     11.84s CPU     13.10s WALL (      25 calls)

     Called by *egterg:
     h_psi        :   1250.22s CPU   1276.77s WALL (    2092 calls)
     s_psi        :     76.11s CPU     76.17s WALL (    2092 calls)
     g_psi        :      2.38s CPU      2.39s WALL (    1364 calls)
     cdiaghg      :    146.66s CPU    147.07s WALL (    2064 calls)

     Called by h_psi:
     h_psi:pot    :   1246.84s CPU   1273.24s WALL (    2092 calls)
     h_psi:calbec :     64.38s CPU     64.48s WALL (    2092 calls)
     vloc_psi     :   1100.46s CPU   1126.66s WALL (    2092 calls)
     add_vuspsi   :     81.96s CPU     82.05s WALL (    2092 calls)

     General routines
     calbec       :     93.47s CPU     93.59s WALL (    2792 calls)
     fft          :      6.34s CPU      6.53s WALL (     412 calls)
     ffts         :      0.24s CPU      0.25s WALL (      51 calls)
     fftw         :   1146.49s CPU   1174.40s WALL (  416746 calls)
     interpolate  :      1.11s CPU      1.13s WALL (      51 calls)
 
     Parallel routines
     fft_scatt_xy :    220.98s CPU    226.81s WALL (  417209 calls)
     fft_scatt_yz :    241.64s CPU    247.64s WALL (  417209 calls)
 
     PWSCF        : 37m 3.45s CPU    38m59.43s WALL

 
   This run was terminated on:  12:33:15  19Sep2017            

=------------------------------------------------------------------------------=
   JOB DONE.
=------------------------------------------------------------------------------=
