
     Program PWSCF v.6.2MaX starts on 20Sep2017 at  9:47:51 

     This program is part of the open-source Quantum ESPRESSO suite
     for quantum simulation of materials; please cite
         "P. Giannozzi et al., J. Phys.:Condens. Matter 21 395502 (2009);
          URL http://www.quantum-espresso.org", 
     in publications or presentations arising from this work. More details at
     http://www.quantum-espresso.org/quote

     Parallel version (MPI), running on  1024 processors
     K-points division:     npool     =     128
     R & G space division:  proc/nbgrp/npool/nimage =       8
     Reading input from aiida.in

     Current dimensions of program PWSCF are:
     Max number of different atomic species (ntypx) = 10
     Max number of k-points (npk) =  40000
     Max angular momentum in pseudopotentials (lmaxx) =  3

     Subspace diagonalization in iterative solution of the eigenvalue problem:
     a serial algorithm will be used

 
     Parallelization info
     --------------------
     sticks:   dense  smooth     PW     G-vecs:    dense   smooth      PW
     Min         672     338     96                32530    11527    1794
     Max         673     340     97                32534    11528    1798
     Sum        5377    2713    769               260251    92217   14361
 


     bravais-lattice index     =            0
     lattice parameter (alat)  =      14.7236  a.u.
     unit-cell volume          =    2256.9821 (a.u.)^3
     number of atoms/cell      =           24
     number of atomic types    =            2
     number of electrons       =       192.00
     number of Kohn-Sham states=          115
     kinetic-energy cutoff     =      45.0000  Ry
     charge density cutoff     =     360.0000  Ry
     convergence threshold     =      2.4E-07
     mixing beta               =       0.3500
     number of iterations used =            8  plain     mixing
     Exchange-correlation      = SLA  PW   PBE  PBE ( 1  4  3  4 0 0)

     celldm(1)=  14.723612  celldm(2)=   0.000000  celldm(3)=   0.000000
     celldm(4)=   0.000000  celldm(5)=   0.000000  celldm(6)=   0.000000

     crystal axes: (cart. coord. in units of alat)
               a(1) = (   1.000000   0.000000   0.000000 )  
               a(2) = (  -0.500000   0.707107  -0.500000 )  
               a(3) = (   0.000000   0.000000   1.000000 )  

     reciprocal axes: (cart. coord. in units 2 pi/alat)
               b(1) = (  1.000000  0.707107  0.000000 )  
               b(2) = (  0.000000  1.414214  0.000000 )  
               b(3) = (  0.000000  0.707107  1.000000 )  


     PseudoPot. # 1 for Na read from file:
     ./pseudo/Na_pbe_v1.uspp.F.UPF
     MD5 check sum: 76a99c7e9422403d3e93cbc85ab7bccb
     Pseudo is Ultrasoft, Zval =  9.0
     Generated by new atomic code, or converted to UPF format
     Using radial grid of  819 points,  5 beta functions with: 
                l(1) =   0
                l(2) =   0
                l(3) =   1
                l(4) =   1
                l(5) =   2
     Q(r) pseudized with  8 coefficients,  rinner =    1.250   1.250   1.250
                                                       1.250   1.250

     PseudoPot. # 2 for O  read from file:
     ./pseudo/O_pbe_v1.2.uspp.F.UPF
     MD5 check sum: 734c27235a0248c51dbae37a1fbe46ec
     Pseudo is Ultrasoft + core correction, Zval =  6.0
     Generated by new atomic code, or converted to UPF format
     Using radial grid of  737 points,  5 beta functions with: 
                l(1) =   0
                l(2) =   0
                l(3) =   1
                l(4) =   1
                l(5) =   2
     Q(r) pseudized with  8 coefficients,  rinner =    0.900   0.900   0.900
                                                       0.900   0.900

     atomic species   valence    mass     pseudopotential
        Na             9.00    22.98977     Na( 1.00)
        O              6.00    15.99940     O ( 1.00)

     No symmetry found



   Cartesian axes

     site n.     atom                  positions (alat units)
         1           Na  tau(   1) = (   0.2480006   0.1816205  -0.0088298  )
         2           Na  tau(   2) = (   0.2442276   0.1751519   0.5083346  )
         3           Na  tau(   3) = (   0.0079029   0.5296288  -0.2434824  )
         4           Na  tau(   4) = (   0.0070265   0.5229028   0.2490560  )
         5           Na  tau(   5) = (   0.7574231   0.1748804  -0.0068357  )
         6           Na  tau(   6) = (   0.7456596   0.1831956   0.4932632  )
         7           Na  tau(   7) = (   0.4909560   0.5344985  -0.2474988  )
         8           Na  tau(   8) = (   0.5008402   0.5389394   0.2444682  )
         9           Na  tau(   9) = (   0.0081340   0.1824308   0.2472990  )
        10           Na  tau(  10) = (  -0.0052220   0.1850177   0.7467997  )
        11           Na  tau(  11) = (  -0.2448280   0.5232254   0.0053104  )
        12           Na  tau(  12) = (  -0.2549976   0.5244033   0.5067323  )
        13           Na  tau(  13) = (   0.5087954   0.1717887   0.2482144  )
        14           Na  tau(  14) = (   0.4912417   0.1799920   0.7457127  )
        15           Na  tau(  15) = (   0.2465708   0.5250319   0.0080991  )
        16           Na  tau(  16) = (   0.2556700   0.5228488   0.4958397  )
        17           O   tau(  17) = (   0.0004461   0.0019119   0.9899217  )
        18           O   tau(  18) = (   0.4967317   0.6976460   0.0022886  )
        19           O   tau(  19) = (   0.7550405   0.3461905   0.7550801  )
        20           O   tau(  20) = (   0.7411253   0.3521528   0.2450297  )
        21           O   tau(  21) = (   0.0027894   0.6978001   0.5033214  )
        22           O   tau(  22) = (  -0.0073866   0.7025188  -0.0054603  )
        23           O   tau(  23) = (   0.2493128   0.3515152   0.7399601  )
        24           O   tau(  24) = (   0.2403927   0.3502103   0.2486036  )

     number of k points=  1756  Marzari-Vanderbilt smearing, width (Ry)=  0.0200

     Number of k-points >= 100: set verbosity='high' to print them.

     Dense  grid:   260251 G-vectors     FFT dimensions: (  90,  90,  90)

     Smooth grid:    92217 G-vectors     FFT dimensions: (  64,  64,  64)

     Estimated max dynamical RAM per process >     131.38 MB

     Estimated total dynamical RAM >     131.38 GB

     Check: negative/imaginary core charge=   -0.000001    0.000000

     Initial potential from superposition of free atoms

     starting charge  191.89934, renormalised to  192.00000
     Starting wfc are  112 randomized atomic wfcs +    3 random wfc

     total cpu time spent up to now is       15.1 secs

     Self-consistent Calculation

     iteration #  1     ecut=    45.00 Ry     beta= 0.35
     Davidson diagonalization with overlap
     ethr =  1.00E-02,  avg # of iterations =  4.2

     total cpu time spent up to now is       49.2 secs

     total energy              =   -1779.48768731 Ry
     Harris-Foulkes estimate   =   -1782.87525365 Ry
     estimated scf accuracy    <       6.84647023 Ry

     iteration #  2     ecut=    45.00 Ry     beta= 0.35
     Davidson diagonalization with overlap
     ethr =  3.57E-03,  avg # of iterations =  2.0

     total cpu time spent up to now is       76.4 secs

     total energy              =   -1780.86178407 Ry
     Harris-Foulkes estimate   =   -1781.14927279 Ry
     estimated scf accuracy    <       0.87076483 Ry

     iteration #  3     ecut=    45.00 Ry     beta= 0.35
     Davidson diagonalization with overlap
     ethr =  4.54E-04,  avg # of iterations =  2.1

     total cpu time spent up to now is      107.4 secs

     total energy              =   -1780.96374807 Ry
     Harris-Foulkes estimate   =   -1781.07040712 Ry
     estimated scf accuracy    <       0.49955482 Ry

     iteration #  4     ecut=    45.00 Ry     beta= 0.35
     Davidson diagonalization with overlap
     ethr =  2.60E-04,  avg # of iterations =  2.0

     total cpu time spent up to now is      138.1 secs

     total energy              =   -1780.99056275 Ry
     Harris-Foulkes estimate   =   -1781.03753499 Ry
     estimated scf accuracy    <       0.20559894 Ry

     iteration #  5     ecut=    45.00 Ry     beta= 0.35
     Davidson diagonalization with overlap
     ethr =  1.07E-04,  avg # of iterations =  2.2

     total cpu time spent up to now is      174.6 secs

     total energy              =   -1780.96670811 Ry
     Harris-Foulkes estimate   =   -1781.00395840 Ry
     estimated scf accuracy    <       0.16243576 Ry

     iteration #  6     ecut=    45.00 Ry     beta= 0.35
     Davidson diagonalization with overlap
     ethr =  8.46E-05,  avg # of iterations =  2.4

     total cpu time spent up to now is      212.1 secs

     total energy              =   -1780.98018034 Ry
     Harris-Foulkes estimate   =   -1781.01465259 Ry
     estimated scf accuracy    <       0.21582756 Ry

     iteration #  7     ecut=    45.00 Ry     beta= 0.35
     Davidson diagonalization with overlap
     ethr =  8.46E-05,  avg # of iterations =  2.0

     total cpu time spent up to now is      240.9 secs

     total energy              =   -1780.99579721 Ry
     Harris-Foulkes estimate   =   -1781.01969240 Ry
     estimated scf accuracy    <       0.16210017 Ry

     iteration #  8     ecut=    45.00 Ry     beta= 0.35
     Davidson diagonalization with overlap
     ethr =  8.44E-05,  avg # of iterations =  1.0

     total cpu time spent up to now is      266.3 secs

     total energy              =   -1780.99581372 Ry
     Harris-Foulkes estimate   =   -1781.00752652 Ry
     estimated scf accuracy    <       0.10847296 Ry

     iteration #  9     ecut=    45.00 Ry     beta= 0.35
     Davidson diagonalization with overlap
     ethr =  5.65E-05,  avg # of iterations =  1.0

     total cpu time spent up to now is      289.6 secs

     total energy              =   -1780.99282842 Ry
     Harris-Foulkes estimate   =   -1781.00143288 Ry
     estimated scf accuracy    <       0.08256639 Ry

     iteration # 10     ecut=    45.00 Ry     beta= 0.35
     Davidson diagonalization with overlap
     ethr =  4.30E-05,  avg # of iterations =  1.0

     total cpu time spent up to now is      315.0 secs

     total energy              =   -1780.98574660 Ry
     Harris-Foulkes estimate   =   -1780.99761381 Ry
     estimated scf accuracy    <       0.07320197 Ry

     iteration # 11     ecut=    45.00 Ry     beta= 0.35
     Davidson diagonalization with overlap
     ethr =  3.81E-05,  avg # of iterations =  2.1

     total cpu time spent up to now is      351.4 secs

     total energy              =   -1780.98529483 Ry
     Harris-Foulkes estimate   =   -1780.99836015 Ry
     estimated scf accuracy    <       0.11562020 Ry

     iteration # 12     ecut=    45.00 Ry     beta= 0.35
     Davidson diagonalization with overlap
     ethr =  3.81E-05,  avg # of iterations =  1.0

     total cpu time spent up to now is      374.9 secs

     total energy              =   -1780.98917556 Ry
     Harris-Foulkes estimate   =   -1780.99314676 Ry
     estimated scf accuracy    <       0.04871432 Ry

     iteration # 13     ecut=    45.00 Ry     beta= 0.35
     Davidson diagonalization with overlap
     ethr =  2.54E-05,  avg # of iterations =  1.0

     total cpu time spent up to now is      400.6 secs

     total energy              =   -1780.99058635 Ry
     Harris-Foulkes estimate   =   -1780.99145615 Ry
     estimated scf accuracy    <       0.01335326 Ry

     iteration # 14     ecut=    45.00 Ry     beta= 0.35
     Davidson diagonalization with overlap
     ethr =  6.95E-06,  avg # of iterations =  3.3

     total cpu time spent up to now is      451.9 secs

     total energy              =   -1780.98999399 Ry
     Harris-Foulkes estimate   =   -1780.99151081 Ry
     estimated scf accuracy    <       0.01338432 Ry

     iteration # 15     ecut=    45.00 Ry     beta= 0.35
     Davidson diagonalization with overlap
     ethr =  6.95E-06,  avg # of iterations =  1.2

     total cpu time spent up to now is      488.5 secs

     total energy              =   -1780.99071611 Ry
     Harris-Foulkes estimate   =   -1780.99117531 Ry
     estimated scf accuracy    <       0.00393718 Ry

     iteration # 16     ecut=    45.00 Ry     beta= 0.35
     Davidson diagonalization with overlap
     ethr =  2.05E-06,  avg # of iterations =  5.0

     total cpu time spent up to now is      540.6 secs

     total energy              =   -1780.99081405 Ry
     Harris-Foulkes estimate   =   -1780.99101940 Ry
     estimated scf accuracy    <       0.00095440 Ry

     iteration # 17     ecut=    45.00 Ry     beta= 0.35
     Davidson diagonalization with overlap
     ethr =  4.97E-07,  avg # of iterations =  1.1

     total cpu time spent up to now is      570.9 secs

     total energy              =   -1780.99070321 Ry
     Harris-Foulkes estimate   =   -1780.99113078 Ry
     estimated scf accuracy    <       0.00314339 Ry

     iteration # 18     ecut=    45.00 Ry     beta= 0.35
     Davidson diagonalization with overlap
     ethr =  4.97E-07,  avg # of iterations =  1.1

     total cpu time spent up to now is      595.1 secs

     total energy              =   -1780.99088415 Ry
     Harris-Foulkes estimate   =   -1780.99106896 Ry
     estimated scf accuracy    <       0.00204673 Ry

     iteration # 19     ecut=    45.00 Ry     beta= 0.35
     Davidson diagonalization with overlap
     ethr =  4.97E-07,  avg # of iterations =  1.0

     total cpu time spent up to now is      618.5 secs

     total energy              =   -1780.99099522 Ry
     Harris-Foulkes estimate   =   -1780.99100354 Ry
     estimated scf accuracy    <       0.00015464 Ry

     iteration # 20     ecut=    45.00 Ry     beta= 0.35
     Davidson diagonalization with overlap
     ethr =  8.05E-08,  avg # of iterations =  1.0

     total cpu time spent up to now is      642.0 secs

     total energy              =   -1780.99099934 Ry
     Harris-Foulkes estimate   =   -1780.99099994 Ry
     estimated scf accuracy    <       0.00001210 Ry

     iteration # 21     ecut=    45.00 Ry     beta= 0.35
     Davidson diagonalization with overlap
     ethr =  6.30E-09,  avg # of iterations =  1.0

     total cpu time spent up to now is      665.7 secs

     total energy              =   -1780.99100014 Ry
     Harris-Foulkes estimate   =   -1780.99100076 Ry
     estimated scf accuracy    <       0.00000809 Ry

     iteration # 22     ecut=    45.00 Ry     beta= 0.35
     Davidson diagonalization with overlap
     ethr =  4.22E-09,  avg # of iterations =  1.0

     total cpu time spent up to now is      689.1 secs

     total energy              =   -1780.99100036 Ry
     Harris-Foulkes estimate   =   -1780.99100060 Ry
     estimated scf accuracy    <       0.00000364 Ry

     iteration # 23     ecut=    45.00 Ry     beta= 0.35
     Davidson diagonalization with overlap
     ethr =  1.89E-09,  avg # of iterations =  1.0

     total cpu time spent up to now is      712.6 secs

     total energy              =   -1780.99100050 Ry
     Harris-Foulkes estimate   =   -1780.99100057 Ry
     estimated scf accuracy    <       0.00000105 Ry

     iteration # 24     ecut=    45.00 Ry     beta= 0.35
     Davidson diagonalization with overlap
     ethr =  5.49E-10,  avg # of iterations =  1.0

     total cpu time spent up to now is      736.2 secs

     total energy              =   -1780.99100046 Ry
     Harris-Foulkes estimate   =   -1780.99100072 Ry
     estimated scf accuracy    <       0.00000291 Ry

     iteration # 25     ecut=    45.00 Ry     beta= 0.35
     Davidson diagonalization with overlap
     ethr =  5.49E-10,  avg # of iterations =  1.0

     total cpu time spent up to now is      759.6 secs

     End of self-consistent calculation

     Number of k-points >= 100: set verbosity='high' to print the bands.

     the Fermi energy is     3.4824 ev

!    total energy              =   -1780.99100055 Ry
     Harris-Foulkes estimate   =   -1780.99100060 Ry
     estimated scf accuracy    <       0.00000006 Ry

     The total energy is the sum of the following terms:

     one-electron contribution =   -1185.33186402 Ry
     hartree contribution      =     657.88482326 Ry
     xc contribution           =    -289.00537400 Ry
     ewald contribution        =    -964.58993640 Ry
     smearing contrib. (-TS)   =       0.05135061 Ry

     convergence has been achieved in  25 iterations

     Writing output data file aiid.save
 
     init_run     :      9.02s CPU     10.24s WALL (       1 calls)
     electrons    :    685.12s CPU    744.75s WALL (       1 calls)

     Called by init_run:
     wfcinit      :      7.12s CPU      7.49s WALL (       1 calls)
     potinit      :      0.58s CPU      0.91s WALL (       1 calls)

     Called by electrons:
     c_bands      :    575.56s CPU    629.53s WALL (      25 calls)
     sum_band     :     98.39s CPU    102.91s WALL (      25 calls)
     v_of_rho     :      4.76s CPU      4.99s WALL (      26 calls)
     newd         :      5.30s CPU      6.12s WALL (      26 calls)
     mix_rho      :      0.63s CPU      0.71s WALL (      25 calls)

     Called by c_bands:
     init_us_2    :      3.48s CPU      3.56s WALL (     714 calls)
     cegterg      :    452.15s CPU    492.85s WALL (     350 calls)

     Called by sum_band:
     sum_band:bec :      0.26s CPU      0.27s WALL (     350 calls)
     addusdens    :      6.87s CPU      7.74s WALL (      25 calls)

     Called by *egterg:
     h_psi        :    330.41s CPU    342.97s WALL (    1035 calls)
     s_psi        :     16.92s CPU     16.97s WALL (    1035 calls)
     g_psi        :      0.62s CPU      0.62s WALL (     671 calls)
     cdiaghg      :     74.78s CPU     74.96s WALL (    1021 calls)

     Called by h_psi:
     h_psi:pot    :    329.58s CPU    342.09s WALL (    1035 calls)
     h_psi:calbec :     14.68s CPU     14.76s WALL (    1035 calls)
     vloc_psi     :    297.69s CPU    310.08s WALL (    1035 calls)
     add_vuspsi   :     17.19s CPU     17.22s WALL (    1035 calls)

     General routines
     calbec       :     21.54s CPU     21.68s WALL (    1385 calls)
     fft          :      3.67s CPU      3.91s WALL (     412 calls)
     ffts         :      0.12s CPU      0.13s WALL (      51 calls)
     fftw         :    307.84s CPU    321.45s WALL (  208430 calls)
     interpolate  :      0.56s CPU      0.59s WALL (      51 calls)
 
     Parallel routines
     fft_scatt_xy :     56.09s CPU     58.16s WALL (  208893 calls)
     fft_scatt_yz :     74.98s CPU     78.08s WALL (  208893 calls)
 
     PWSCF        : 11m46.10s CPU    13m41.98s WALL

 
   This run was terminated on:  10: 1:33  20Sep2017            

=------------------------------------------------------------------------------=
   JOB DONE.
=------------------------------------------------------------------------------=
