================================================================================
| EXCITING OXYGEN started                                                      =
| version hash id: 30681f30b114745ccac6b07b3bfac52c31c84dda                    =
|                                                                              =
| compiler: GNU Fortran (GCC) 9.3.0 20200312 (Cray Inc.)                       =
|                                                                              =
| MPI version using     24 processor(s)                                        =
| |  using MPI-2 features                                                      =
|                                                                              =
| Date (DD-MM-YYYY) : 26-10-2021                                               =
| Time (hh:mm:ss)   : 16:50:41                                                 =
|                                                                              =
| All units are atomic (Hartree, Bohr, etc.)                                   =
================================================================================

********************************************************************************
* Ground-state run starting from atomic densities                              *
********************************************************************************

++++++++++++++++++++++++++++++++++++++++++++++++++++++++++++++++++++++++++++++++
+ Starting initialization                                                      +
++++++++++++++++++++++++++++++++++++++++++++++++++++++++++++++++++++++++++++++++

 Lattice vectors (cartesian) :
     27.3084323463      0.0000000000      0.0000000000
      0.0000000000     15.8283460891      0.0000000000
     -8.6821429882      0.0000000000     14.5189350253

 Reciprocal lattice vectors (cartesian) :
      0.2300822408     -0.0000000000      0.1375863250
      0.0000000000      0.3969577915     -0.0000000000
      0.0000000000      0.0000000000      0.4327580016

 Unit cell volume                           :    6275.7707296617
 Brillouin zone volume                      :       0.0395250598

 Species :    1 (Mn)
     parameters loaded from                 :    Mn.xml
     name                                   :    manganese
     nuclear charge                         :     -25.00000000
     electronic charge                      :      25.00000000
     atomic mass                            :  100145.93690000
     muffin-tin radius                      :       2.20000000
     # of radial points in muffin-tin       :     350

     atomic positions (lattice) :
       1 :   0.00000000  0.00000000  0.00000000
       2 :   0.50000000  0.50000000  0.00000000
       3 :   0.00000000  0.49280000  0.50000000
       4 :   0.50000000  0.99280000  0.50000000

     magnetic fields (cartesian) :
       1 :   0.00000000  0.00000000  4.00000000
       2 :   0.00000000  0.00000000 -4.00000000
       3 :   0.00000000  0.00000000  4.00000000
       4 :   0.00000000  0.00000000 -4.00000000

 Species :    2 (O)
     parameters loaded from                 :    O.xml
     name                                   :    oxygen
     nuclear charge                         :      -8.00000000
     electronic charge                      :       8.00000000
     atomic mass                            :   29165.12203000
     muffin-tin radius                      :       1.20000000
     # of radial points in muffin-tin       :     200

     atomic positions (lattice) :
       1 :   0.95297000  0.08174000  0.18229000
       2 :   0.45297000  0.58174000  0.18229000
       3 :   0.95297000  0.41106000  0.68229000
       4 :   0.45297000  0.91106000  0.68229000
       5 :   0.55298000  0.08392000  0.31888000
       6 :   0.05298000  0.58392000  0.31888000
       7 :   0.55298000  0.40888000  0.81888000
       8 :   0.05298000  0.90888000  0.81888000
       9 :   0.84194000  0.89135000  0.83617000
      10 :   0.34194000  0.39135000  0.83617000
      11 :   0.84194000  0.60145000  0.33617000
      12 :   0.34194000  0.10145000  0.33617000
      13 :   0.66196000  0.88320000  0.66594000
      14 :   0.16196000  0.38320000  0.66594000
      15 :   0.66196000  0.60960000  0.16594000
      16 :   0.16196000  0.10960000  0.16594000
      17 :   0.05657000  0.77684000  0.14755000
      18 :   0.55657000  0.27684000  0.14755000
      19 :   0.05657000  0.71596000  0.64755000
      20 :   0.55657000  0.21596000  0.64755000
      21 :   0.45400000  0.76696000  0.36511000
      22 :   0.95400000  0.26696000  0.36511000
      23 :   0.45400000  0.72584000  0.86511000
      24 :   0.95400000  0.22584000  0.86511000

     magnetic fields (cartesian) :
       1 :   0.00000000  0.00000000  0.00000000
       2 :   0.00000000  0.00000000  0.00000000
       3 :   0.00000000  0.00000000  0.00000000
       4 :   0.00000000  0.00000000  0.00000000
       5 :   0.00000000  0.00000000  0.00000000
       6 :   0.00000000  0.00000000  0.00000000
       7 :   0.00000000  0.00000000  0.00000000
       8 :   0.00000000  0.00000000  0.00000000
       9 :   0.00000000  0.00000000  0.00000000
      10 :   0.00000000  0.00000000  0.00000000
      11 :   0.00000000  0.00000000  0.00000000
      12 :   0.00000000  0.00000000  0.00000000
      13 :   0.00000000  0.00000000  0.00000000
      14 :   0.00000000  0.00000000  0.00000000
      15 :   0.00000000  0.00000000  0.00000000
      16 :   0.00000000  0.00000000  0.00000000
      17 :   0.00000000  0.00000000  0.00000000
      18 :   0.00000000  0.00000000  0.00000000
      19 :   0.00000000  0.00000000  0.00000000
      20 :   0.00000000  0.00000000  0.00000000
      21 :   0.00000000  0.00000000  0.00000000
      22 :   0.00000000  0.00000000  0.00000000
      23 :   0.00000000  0.00000000  0.00000000
      24 :   0.00000000  0.00000000  0.00000000

 Species :    3 (N)
     parameters loaded from                 :    N.xml
     name                                   :    nitrogen
     nuclear charge                         :      -7.00000000
     electronic charge                      :       7.00000000
     atomic mass                            :   25532.72506000
     muffin-tin radius                      :       1.20000000
     # of radial points in muffin-tin       :     250

     atomic positions (lattice) :
       1 :   0.69723000  0.93890000  0.23567000
       2 :   0.19723000  0.43890000  0.23567000
       3 :   0.69723000  0.55390000  0.73567000
       4 :   0.19723000  0.05390000  0.73567000

     magnetic fields (cartesian) :
       1 :   0.00000000  0.00000000  0.00000000
       2 :   0.00000000  0.00000000  0.00000000
       3 :   0.00000000  0.00000000  0.00000000
       4 :   0.00000000  0.00000000  0.00000000

 Species :    4 (C)
     parameters loaded from                 :    C.xml
     name                                   :    carbon
     nuclear charge                         :      -6.00000000
     electronic charge                      :       6.00000000
     atomic mass                            :   21894.16673000
     muffin-tin radius                      :       1.15000000
     # of radial points in muffin-tin       :     250

     atomic positions (lattice) :
       1 :   0.75126000  0.95855000  0.74847000
       2 :   0.25126000  0.45855000  0.74847000
       3 :   0.75126000  0.53425000  0.24847000
       4 :   0.25126000  0.03425000  0.24847000
       5 :   0.69194000  0.00850000  0.07904000
       6 :   0.19194000  0.50850000  0.07904000
       7 :   0.69194000  0.48430000  0.57904000
       8 :   0.19194000  0.98430000  0.57904000
       9 :   0.80111000  0.97182000  0.39780000
      10 :   0.30111000  0.47182000  0.39780000
      11 :   0.80111000  0.52098000  0.89780000
      12 :   0.30111000  0.02098000  0.89780000
      13 :   0.96281000  0.22420000  0.23697000
      14 :   0.46281000  0.72420000  0.23697000
      15 :   0.96281000  0.26860000  0.73697000
      16 :   0.46281000  0.76860000  0.73697000
      17 :   0.52354000  0.21944000  0.24251000
      18 :   0.02354000  0.71944000  0.24251000
      19 :   0.52354000  0.27336000  0.74251000
      20 :   0.02354000  0.77336000  0.74251000

     magnetic fields (cartesian) :
       1 :   0.00000000  0.00000000  0.00000000
       2 :   0.00000000  0.00000000  0.00000000
       3 :   0.00000000  0.00000000  0.00000000
       4 :   0.00000000  0.00000000  0.00000000
       5 :   0.00000000  0.00000000  0.00000000
       6 :   0.00000000  0.00000000  0.00000000
       7 :   0.00000000  0.00000000  0.00000000
       8 :   0.00000000  0.00000000  0.00000000
       9 :   0.00000000  0.00000000  0.00000000
      10 :   0.00000000  0.00000000  0.00000000
      11 :   0.00000000  0.00000000  0.00000000
      12 :   0.00000000  0.00000000  0.00000000
      13 :   0.00000000  0.00000000  0.00000000
      14 :   0.00000000  0.00000000  0.00000000
      15 :   0.00000000  0.00000000  0.00000000
      16 :   0.00000000  0.00000000  0.00000000
      17 :   0.00000000  0.00000000  0.00000000
      18 :   0.00000000  0.00000000  0.00000000
      19 :   0.00000000  0.00000000  0.00000000
      20 :   0.00000000  0.00000000  0.00000000

 Species :    5 (H)
     parameters loaded from                 :    H.xml
     name                                   :    hydrogen
     nuclear charge                         :      -1.00000000
     electronic charge                      :       1.00000000
     atomic mass                            :    1837.36222000
     muffin-tin radius                      :       0.75000000
     # of radial points in muffin-tin       :     200

     atomic positions (lattice) :
       1 :   0.24749000  0.90180000  0.24119000
       2 :   0.74749000  0.40180000  0.24119000
       3 :   0.24749000  0.59100000  0.74119000
       4 :   0.74749000  0.09100000  0.74119000
       5 :   0.76019000  0.96348000  0.07035000
       6 :   0.26019000  0.46348000  0.07035000
       7 :   0.76019000  0.52932000  0.57035000
       8 :   0.26019000  0.02932000  0.57035000
       9 :   0.80845000  0.10080000  0.42149000
      10 :   0.30845000  0.60080000  0.42149000
      11 :   0.80845000  0.39200000  0.92149000
      12 :   0.30845000  0.89200000  0.92149000
      13 :   0.61517000  0.97511000  0.96368000
      14 :   0.11517000  0.47511000  0.96368000
      15 :   0.61517000  0.51769000  0.46368000
      16 :   0.11517000  0.01769000  0.46368000
      17 :   0.80287000  0.90852000  0.50612000
      18 :   0.30287000  0.40852000  0.50612000
      19 :   0.80287000  0.58428000  0.00612000
      20 :   0.30287000  0.08428000  0.00612000
      21 :   0.69683000  0.13873000  0.09223000
      22 :   0.19683000  0.63873000  0.09223000
      23 :   0.69683000  0.35407000  0.59223000
      24 :   0.19683000  0.85407000  0.59223000
      25 :   0.86743000  0.93107000  0.38183000
      26 :   0.36743000  0.43107000  0.38183000
      27 :   0.86743000  0.56173000  0.88183000
      28 :   0.36743000  0.06173000  0.88183000
      29 :   0.68506000  0.81417000  0.21662000
      30 :   0.18506000  0.31417000  0.21662000
      31 :   0.68506000  0.67863000  0.71662000
      32 :   0.18506000  0.17863000  0.71662000
      33 :   0.63534000  0.98785000  0.25176000
      34 :   0.13534000  0.48785000  0.25176000
      35 :   0.63534000  0.50495000  0.75176000
      36 :   0.13534000  0.00495000  0.75176000
      37 :   0.48036000  0.81797000  0.16709000
      38 :   0.98036000  0.31797000  0.16709000
      39 :   0.48036000  0.67483000  0.66709000
      40 :   0.98036000  0.17483000  0.66709000
      41 :   0.96559000  0.78995000  0.26177000
      42 :   0.46559000  0.28995000  0.26177000
      43 :   0.96559000  0.70285000  0.76177000
      44 :   0.46559000  0.20285000  0.76177000

     magnetic fields (cartesian) :
       1 :   0.00000000  0.00000000  0.00000000
       2 :   0.00000000  0.00000000  0.00000000
       3 :   0.00000000  0.00000000  0.00000000
       4 :   0.00000000  0.00000000  0.00000000
       5 :   0.00000000  0.00000000  0.00000000
       6 :   0.00000000  0.00000000  0.00000000
       7 :   0.00000000  0.00000000  0.00000000
       8 :   0.00000000  0.00000000  0.00000000
       9 :   0.00000000  0.00000000  0.00000000
      10 :   0.00000000  0.00000000  0.00000000
      11 :   0.00000000  0.00000000  0.00000000
      12 :   0.00000000  0.00000000  0.00000000
      13 :   0.00000000  0.00000000  0.00000000
      14 :   0.00000000  0.00000000  0.00000000
      15 :   0.00000000  0.00000000  0.00000000
      16 :   0.00000000  0.00000000  0.00000000
      17 :   0.00000000  0.00000000  0.00000000
      18 :   0.00000000  0.00000000  0.00000000
      19 :   0.00000000  0.00000000  0.00000000
      20 :   0.00000000  0.00000000  0.00000000
      21 :   0.00000000  0.00000000  0.00000000
      22 :   0.00000000  0.00000000  0.00000000
      23 :   0.00000000  0.00000000  0.00000000
      24 :   0.00000000  0.00000000  0.00000000
      25 :   0.00000000  0.00000000  0.00000000
      26 :   0.00000000  0.00000000  0.00000000
      27 :   0.00000000  0.00000000  0.00000000
      28 :   0.00000000  0.00000000  0.00000000
      29 :   0.00000000  0.00000000  0.00000000
      30 :   0.00000000  0.00000000  0.00000000
      31 :   0.00000000  0.00000000  0.00000000
      32 :   0.00000000  0.00000000  0.00000000
      33 :   0.00000000  0.00000000  0.00000000
      34 :   0.00000000  0.00000000  0.00000000
      35 :   0.00000000  0.00000000  0.00000000
      36 :   0.00000000  0.00000000  0.00000000
      37 :   0.00000000  0.00000000  0.00000000
      38 :   0.00000000  0.00000000  0.00000000
      39 :   0.00000000  0.00000000  0.00000000
      40 :   0.00000000  0.00000000  0.00000000
      41 :   0.00000000  0.00000000  0.00000000
      42 :   0.00000000  0.00000000  0.00000000
      43 :   0.00000000  0.00000000  0.00000000
      44 :   0.00000000  0.00000000  0.00000000

 Total number of atoms per unit cell        :      96

 Spin treatment                             :    spin-unpolarised

 Number of Bravais lattice symmetries       :       4
 Number of crystal symmetries               :       4

 k-point grid                               :       2    4    4
 Total number of k-points                   :      24
 k-point set is reduced with crystal symmetries

 R^MT_min * |G+k|_max (rgkmax)              :       4.00000000
 Species with R^MT_min                      :       5 (H)
 Maximum |G+k| for APW functions            :       5.33333333
 Maximum |G| for potential and density      :      16.00000000

 G-vector grid sizes                        :     144    81    90
 Total number of G-vectors                  :  434069

 Maximum angular momentum used for
     APW functions                          :       8
     computing H and O matrix elements      :       8
     potential and density                  :       8
     inner part of muffin-tin               :       2

 Total nuclear charge                       :    -484.00000000
 Total electronic charge                    :     484.00000000
 Total core charge                          :     144.00000000
 Total valence charge                       :     340.00000000

 Number of empty states                     :       5
 Total number of valence states             :     176

 Maximum Hamiltonian size                   :   16396
 Maximum number of plane-waves              :   16112
 Total number of local-orbitals             :     284

 Exchange-correlation type                  :      20
     Perdew-Burke-Ernzerhof, Phys. Rev. Lett. 77, 3865 (1996)
     Generalised gradient approximation (GGA)

 Smearing scheme                            :    Gaussian
 Smearing width                             :       0.00100000

 Using multisecant Broyden potential mixing

++++++++++++++++++++++++++++++++++++++++++++++++++++++++++++++++++++++++++++++++
+ Ending initialization                                                        +
++++++++++++++++++++++++++++++++++++++++++++++++++++++++++++++++++++++++++++++++

********************************************************************************
* Groundstate module started                                                   *
********************************************************************************
 Output level for this task is set to normal

++++++++++++++++++++++++++++++++++++++++++++++++++++++++++++++++++++++++++++++++
+ Self-consistent loop started                                                 +
++++++++++++++++++++++++++++++++++++++++++++++++++++++++++++++++++++++++++++++++
 Density and potential initialised from atomic data


++++++++++++++++++++++++++++++++++++++++++++++++++++++++++++++++++++++++++++++++
+ SCF iteration number :    1                                                  +
++++++++++++++++++++++++++++++++++++++++++++++++++++++++++++++++++++++++++++++++
 Total energy                               :     -7544.77478900
 _______________________________________________________________
 Fermi energy                               :         0.03039794
 Kinetic energy                             :      7445.97205701
 Coulomb energy                             :    -14419.00196590
 Exchange energy                            :      -571.74488012
 Correlation energy                         :         0.00000000

 DOS at Fermi energy (states/Ha/cell)       :      2369.25416800

 Electron charges :
     core                                   :       144.00000000
     core leakage                           :         0.03383181
     valence                                :       340.00000000
     interstitial                           :       143.56361380
     charge in muffin-tin spheres :
                  atom     1    Mn          :        23.02422539
                  atom     2    Mn          :        23.02422539
                  atom     3    Mn          :        23.02422539
                  atom     4    Mn          :        23.02422539
                  atom     5     O          :         6.06584851
                  atom     6     O          :         6.06584851
                  atom     7     O          :         6.06584851
                  atom     8     O          :         6.06584851
                  atom     9     O          :         6.04248607
                  atom    10     O          :         6.04248607
                  atom    11     O          :         6.04248607
                  atom    12     O          :         6.04248607
                  atom    13     O          :         6.06929846
                  atom    14     O          :         6.06929846
                  atom    15     O          :         6.06929846
                  atom    16     O          :         6.06929846
                  atom    17     O          :         6.04697428
                  atom    18     O          :         6.04697428
                  atom    19     O          :         6.04697428
                  atom    20     O          :         6.04697428
                  atom    21     O          :         6.06815064
                  atom    22     O          :         6.06815064
                  atom    23     O          :         6.06815064
                  atom    24     O          :         6.06815064
                  atom    25     O          :         6.07154839
                  atom    26     O          :         6.07154839
                  atom    27     O          :         6.07154839
                  atom    28     O          :         6.07154839
                  atom    29     N          :         4.80591290
                  atom    30     N          :         4.80591290
                  atom    31     N          :         4.80591290
                  atom    32     N          :         4.80591290
                  atom    33     C          :         3.42258020
                  atom    34     C          :         3.42258020
                  atom    35     C          :         3.42258020
                  atom    36     C          :         3.42258020
                  atom    37     C          :         3.68818165
                  atom    38     C          :         3.68818165
                  atom    39     C          :         3.68818165
                  atom    40     C          :         3.68818165
                  atom    41     C          :         3.68868290
                  atom    42     C          :         3.68868290
                  atom    43     C          :         3.68868290
                  atom    44     C          :         3.68868290
                  atom    45     C          :         3.42474160
                  atom    46     C          :         3.42474160
                  atom    47     C          :         3.42474160
                  atom    48     C          :         3.42474160
                  atom    49     C          :         3.42207073
                  atom    50     C          :         3.42207073
                  atom    51     C          :         3.42207073
                  atom    52     C          :         3.42207073
                  atom    53     H          :         0.30744751
                  atom    54     H          :         0.30744751
                  atom    55     H          :         0.30744751
                  atom    56     H          :         0.30744751
                  atom    57     H          :         0.30221252
                  atom    58     H          :         0.30221252
                  atom    59     H          :         0.30221252
                  atom    60     H          :         0.30221252
                  atom    61     H          :         0.30232465
                  atom    62     H          :         0.30232465
                  atom    63     H          :         0.30232465
                  atom    64     H          :         0.30232465
                  atom    65     H          :         0.30117712
                  atom    66     H          :         0.30117712
                  atom    67     H          :         0.30117712
                  atom    68     H          :         0.30117712
                  atom    69     H          :         0.30156644
                  atom    70     H          :         0.30156644
                  atom    71     H          :         0.30156644
                  atom    72     H          :         0.30156644
                  atom    73     H          :         0.30267901
                  atom    74     H          :         0.30267901
                  atom    75     H          :         0.30267901
                  atom    76     H          :         0.30267901
                  atom    77     H          :         0.30343565
                  atom    78     H          :         0.30343565
                  atom    79     H          :         0.30343565
                  atom    80     H          :         0.30343565
                  atom    81     H          :         0.26493969
                  atom    82     H          :         0.26493969
                  atom    83     H          :         0.26493969
                  atom    84     H          :         0.26493969
                  atom    85     H          :         0.26494420
                  atom    86     H          :         0.26494420
                  atom    87     H          :         0.26494420
                  atom    88     H          :         0.26494420
                  atom    89     H          :         0.30873368
                  atom    90     H          :         0.30873368
                  atom    91     H          :         0.30873368
                  atom    92     H          :         0.30873368
                  atom    93     H          :         0.30893436
                  atom    94     H          :         0.30893436
                  atom    95     H          :         0.30893436
                  atom    96     H          :         0.30893436
     total charge in muffin-tins            :       340.43638620
     total charge                           :       484.00000000

 Wall time (seconds)                        :       764.36

++++++++++++++++++++++++++++++++++++++++++++++++++++++++++++++++++++++++++++++++
+ Reached self-consistent loops maximum :    2                                 +
++++++++++++++++++++++++++++++++++++++++++++++++++++++++++++++++++++++++++++++++
 Total energy                               :     -7502.17247345
 _______________________________________________________________
 Fermi energy                               :         0.03826275
 Kinetic energy                             :      7463.74678049
 Coulomb energy                             :    -14398.18441610
 Exchange energy                            :      -567.73483784
 Correlation energy                         :         0.00000000

 DOS at Fermi energy (states/Ha/cell)       :      3818.44608087

 Electron charges :
     core                                   :       144.00000000
     core leakage                           :         0.03393858
     valence                                :       340.00000000
     interstitial                           :       148.25792546
     charge in muffin-tin spheres :
                  atom     1    Mn          :        23.28824247
                  atom     2    Mn          :        23.28824247
                  atom     3    Mn          :        23.28824247
                  atom     4    Mn          :        23.28824247
                  atom     5     O          :         5.82758840
                  atom     6     O          :         5.82758840
                  atom     7     O          :         5.82758840
                  atom     8     O          :         5.82758840
                  atom     9     O          :         5.83114541
                  atom    10     O          :         5.83114541
                  atom    11     O          :         5.83114541
                  atom    12     O          :         5.83114541
                  atom    13     O          :         5.83427786
                  atom    14     O          :         5.83427786
                  atom    15     O          :         5.83427786
                  atom    16     O          :         5.83427786
                  atom    17     O          :         5.83455598
                  atom    18     O          :         5.83455598
                  atom    19     O          :         5.83455598
                  atom    20     O          :         5.83455598
                  atom    21     O          :         5.82915599
                  atom    22     O          :         5.82915599
                  atom    23     O          :         5.82915599
                  atom    24     O          :         5.82915599
                  atom    25     O          :         5.83088603
                  atom    26     O          :         5.83088603
                  atom    27     O          :         5.83088603
                  atom    28     O          :         5.83088603
                  atom    29     N          :         4.73792017
                  atom    30     N          :         4.73792017
                  atom    31     N          :         4.73792017
                  atom    32     N          :         4.73792017
                  atom    33     C          :         3.48024472
                  atom    34     C          :         3.48024472
                  atom    35     C          :         3.48024472
                  atom    36     C          :         3.48024472
                  atom    37     C          :         3.55677183
                  atom    38     C          :         3.55677183
                  atom    39     C          :         3.55677183
                  atom    40     C          :         3.55677183
                  atom    41     C          :         3.55651272
                  atom    42     C          :         3.55651272
                  atom    43     C          :         3.55651272
                  atom    44     C          :         3.55651272
                  atom    45     C          :         3.48174531
                  atom    46     C          :         3.48174531
                  atom    47     C          :         3.48174531
                  atom    48     C          :         3.48174531
                  atom    49     C          :         3.47744275
                  atom    50     C          :         3.47744275
                  atom    51     C          :         3.47744275
                  atom    52     C          :         3.47744275
                  atom    53     H          :         0.31267547
                  atom    54     H          :         0.31267547
                  atom    55     H          :         0.31267547
                  atom    56     H          :         0.31267547
                  atom    57     H          :         0.31207147
                  atom    58     H          :         0.31207147
                  atom    59     H          :         0.31207147
                  atom    60     H          :         0.31207147
                  atom    61     H          :         0.31260094
                  atom    62     H          :         0.31260094
                  atom    63     H          :         0.31260094
                  atom    64     H          :         0.31260094
                  atom    65     H          :         0.31124837
                  atom    66     H          :         0.31124837
                  atom    67     H          :         0.31124837
                  atom    68     H          :         0.31124837
                  atom    69     H          :         0.31294012
                  atom    70     H          :         0.31294012
                  atom    71     H          :         0.31294012
                  atom    72     H          :         0.31294012
                  atom    73     H          :         0.31254006
                  atom    74     H          :         0.31254006
                  atom    75     H          :         0.31254006
                  atom    76     H          :         0.31254006
                  atom    77     H          :         0.31233543
                  atom    78     H          :         0.31233543
                  atom    79     H          :         0.31233543
                  atom    80     H          :         0.31233543
                  atom    81     H          :         0.27734831
                  atom    82     H          :         0.27734831
                  atom    83     H          :         0.27734831
                  atom    84     H          :         0.27734831
                  atom    85     H          :         0.27772048
                  atom    86     H          :         0.27772048
                  atom    87     H          :         0.27772048
                  atom    88     H          :         0.27772048
                  atom    89     H          :         0.31420804
                  atom    90     H          :         0.31420804
                  atom    91     H          :         0.31420804
                  atom    92     H          :         0.31420804
                  atom    93     H          :         0.31334030
                  atom    94     H          :         0.31334030
                  atom    95     H          :         0.31334030
                  atom    96     H          :         0.31334030
     total charge in muffin-tins            :       335.74207454
     total charge                           :       484.00000000

++++++++++++++++++++++++++++++++++++++++++++++++++++++++++++++++++++++++++++++++
+ Self-consistent loop stopped                                                 +
++++++++++++++++++++++++++++++++++++++++++++++++++++++++++++++++++++++++++++++++
 STATE.OUT is written

********************************************************************************
* Groundstate module stopped                                                   *
********************************************************************************

 Total time spent (seconds)                 :      1570.91

--------------------------------------------------------------------------------
- CAUTION! Warnings have been written in file WARNING.OUT !                    -
--------------------------------------------------------------------------------
================================================================================
| EXCITING OXYGEN stopped                                                      =
================================================================================
