
     Program PWSCF v.6.1 starts on 25Sep2017 at 11: 8: 7 

     This program is part of the open-source Quantum ESPRESSO suite
     for quantum simulation of materials; please cite
         "P. Giannozzi et al., J. Phys.:Condens. Matter 21 395502 (2009);
          URL http://www.quantum-espresso.org", 
     in publications or presentations arising from this work. More details at
     http://www.quantum-espresso.org/quote

     Parallel version (MPI & OpenMP), running on      36 processor cores
     Number of MPI processes:                36
     Threads/MPI process:                     1
     K-points division:     npool     =       4
     R & G space division:  proc/nbgrp/npool/nimage =       9
     Reading input from pw.in
     Message from routine read_cards :
     DEPRECATED: no units specified in CELL_PARAMETERS card
SIRIUS 4.8, git hash: 254b482b5c8fe0c26b0b4a747548b4baa50a6567

     Current dimensions of program PWSCF are:
     Max number of different atomic species (ntypx) = 10
     Max number of k-points (npk) =  40000
     Max angular momentum in pseudopotentials (lmaxx) =  3

     Subspace diagonalization in iterative solution of the eigenvalue problem:
     one sub-group per band group will be used
     custom distributed-memory algorithm (size of sub-group:  3*  3 procs)


   Info: using nr1, nr2, nr3 values from input

     Parallelization info
     --------------------
     sticks:   dense  smooth     PW     G-vecs:    dense   smooth      PW
     Min        1492     597    161               129808    32877    4649
     Max        1493     598    162               129811    32880    4652
     Sum       13429    5377   1457              1168287   295907   41851



     bravais-lattice index     =            0
     lattice parameter (alat)  =       1.0000  a.u.
     unit-cell volume          =    8646.7719 (a.u.)^3
     number of atoms/cell      =           64
     number of atomic types    =            2
     number of electrons       =       266.00
     number of Kohn-Sham states=          160
     kinetic-energy cutoff     =      40.0000  Ry
     charge density cutoff     =     400.0000  Ry
     convergence threshold     =      1.0E-11
     mixing beta               =       0.7000
     number of iterations used =            8  plain     mixing
     Exchange-correlation      = SLA  PZ   NOGX NOGC ( 1  1  0  0 0 0)

     celldm(1)=   1.000000  celldm(2)=   0.000000  celldm(3)=   0.000000
     celldm(4)=   0.000000  celldm(5)=   0.000000  celldm(6)=   0.000000

     crystal axes: (cart. coord. in units of alat)
               a(1) = (  20.525071   0.000000   0.000000 )  
               a(2) = (   0.000000  20.525071   0.000000 )  
               a(3) = (   0.000000   0.000000  20.525071 )  

     reciprocal axes: (cart. coord. in units 2 pi/alat)
               b(1) = (  0.048721  0.000000  0.000000 )  
               b(2) = (  0.000000  0.048721  0.000000 )  
               b(3) = (  0.000000  0.000000  0.048721 )  


     PseudoPot. # 1 for Ge read from file:
     ./ge_lda_v1.4.uspp.F.UPF
     MD5 check sum: bf9d52b59cc8a669818bb2b52e0c2ba0
     Pseudo is Ultrasoft + core correction, Zval = 14.0
     Generated by new atomic code, or converted to UPF format
     Using radial grid of  873 points,  6 beta functions with: 
                l(1) =   0
                l(2) =   0
                l(3) =   1
                l(4) =   1
                l(5) =   2
                l(6) =   2
     Q(r) pseudized with  8 coefficients,  rinner =    1.400   1.400   1.400
                                                       1.400   1.400

     PseudoPot. # 2 for Si read from file:
     ./si_lda_v1.uspp.F.UPF
     MD5 check sum: b5ade7b37ee992b02096e360e546dc2d
     Pseudo is Ultrasoft + core correction, Zval =  4.0
     Generated by new atomic code, or converted to UPF format
     Using radial grid of  899 points,  6 beta functions with: 
                l(1) =   0
                l(2) =   0
                l(3) =   1
                l(4) =   1
                l(5) =   2
                l(6) =   2
     Q(r) pseudized with  8 coefficients,  rinner =    0.900   0.900   0.900
                                                       0.900   0.900

     atomic species   valence    mass     pseudopotential
        Ge            14.00    72.61000     Ge( 1.00)
        Si             4.00    28.08550     Si( 1.00)

     24 Sym. Ops. (no inversion) found



   Cartesian axes

     site n.     atom                  positions (a.u.)
         1           Ge  tau(   1) = (   0.0000000   0.0000000   0.0000000  )
         2           Si  tau(   2) = (   0.0000000   0.0000000  10.2625355  )
         3           Si  tau(   3) = (   0.0000000  10.2625355   0.0000000  )
         4           Si  tau(   4) = (   0.0000000  10.2625355  10.2625355  )
         5           Si  tau(   5) = (  10.2625355   0.0000000   0.0000000  )
         6           Si  tau(   6) = (  10.2625355   0.0000000  10.2625355  )
         7           Si  tau(   7) = (  10.2625355  10.2625355   0.0000000  )
         8           Si  tau(   8) = (  10.2625355  10.2625355  10.2625355  )
         9           Si  tau(   9) = (   0.0000000   5.1312678   5.1312678  )
        10           Si  tau(  10) = (   0.0000000   5.1312678  15.3938033  )
        11           Si  tau(  11) = (   0.0000000  15.3938033   5.1312678  )
        12           Si  tau(  12) = (   0.0000000  15.3938033  15.3938033  )
        13           Si  tau(  13) = (  10.2625355   5.1312678   5.1312678  )
        14           Si  tau(  14) = (  10.2625355   5.1312678  15.3938033  )
        15           Si  tau(  15) = (  10.2625355  15.3938033   5.1312678  )
        16           Si  tau(  16) = (  10.2625355  15.3938033  15.3938033  )
        17           Si  tau(  17) = (   5.1312678   0.0000000   5.1312678  )
        18           Si  tau(  18) = (   5.1312678   0.0000000  15.3938033  )
        19           Si  tau(  19) = (   5.1312678  10.2625355   5.1312678  )
        20           Si  tau(  20) = (   5.1312678  10.2625355  15.3938033  )
        21           Si  tau(  21) = (  15.3938033   0.0000000   5.1312678  )
        22           Si  tau(  22) = (  15.3938033   0.0000000  15.3938033  )
        23           Si  tau(  23) = (  15.3938033  10.2625355   5.1312678  )
        24           Si  tau(  24) = (  15.3938033  10.2625355  15.3938033  )
        25           Si  tau(  25) = (   5.1312678   5.1312678   0.0000000  )
        26           Si  tau(  26) = (   5.1312678   5.1312678  10.2625355  )
        27           Si  tau(  27) = (   5.1312678  15.3938033   0.0000000  )
        28           Si  tau(  28) = (   5.1312678  15.3938033  10.2625355  )
        29           Si  tau(  29) = (  15.3938033   5.1312678   0.0000000  )
        30           Si  tau(  30) = (  15.3938033   5.1312678  10.2625355  )
        31           Si  tau(  31) = (  15.3938033  15.3938033   0.0000000  )
        32           Si  tau(  32) = (  15.3938033  15.3938033  10.2625355  )
        33           Si  tau(  33) = (   7.6969016   7.6969016   2.5656339  )
        34           Si  tau(  34) = (   7.6969016   7.6969016  12.8281694  )
        35           Si  tau(  35) = (   7.6969016  17.9594371   2.5656339  )
        36           Si  tau(  36) = (   7.6969016  17.9594371  12.8281694  )
        37           Si  tau(  37) = (  17.9594371   7.6969016   2.5656339  )
        38           Si  tau(  38) = (  17.9594371   7.6969016  12.8281694  )
        39           Si  tau(  39) = (  17.9594371  17.9594371   2.5656339  )
        40           Si  tau(  40) = (  17.9594371  17.9594371  12.8281694  )
        41           Si  tau(  41) = (   7.6969016   2.5656339   7.6969016  )
        42           Si  tau(  42) = (   7.6969016   2.5656339  17.9594371  )
        43           Si  tau(  43) = (   7.6969016  12.8281694   7.6969016  )
        44           Si  tau(  44) = (   7.6969016  12.8281694  17.9594371  )
        45           Si  tau(  45) = (  17.9594371   2.5656339   7.6969016  )
        46           Si  tau(  46) = (  17.9594371   2.5656339  17.9594371  )
        47           Si  tau(  47) = (  17.9594371  12.8281694   7.6969016  )
        48           Si  tau(  48) = (  17.9594371  12.8281694  17.9594371  )
        49           Si  tau(  49) = (   2.5656339   7.6969016   7.6969016  )
        50           Si  tau(  50) = (   2.5656339   7.6969016  17.9594371  )
        51           Si  tau(  51) = (   2.5656339  17.9594371   7.6969016  )
        52           Si  tau(  52) = (   2.5656339  17.9594371  17.9594371  )
        53           Si  tau(  53) = (  12.8281694   7.6969016   7.6969016  )
        54           Si  tau(  54) = (  12.8281694   7.6969016  17.9594371  )
        55           Si  tau(  55) = (  12.8281694  17.9594371   7.6969016  )
        56           Si  tau(  56) = (  12.8281694  17.9594371  17.9594371  )
        57           Si  tau(  57) = (   2.5656339   2.5656339   2.5656339  )
        58           Si  tau(  58) = (   2.5656339   2.5656339  12.8281694  )
        59           Si  tau(  59) = (   2.5656339  12.8281694   2.5656339  )
        60           Si  tau(  60) = (   2.5656339  12.8281694  12.8281694  )
        61           Si  tau(  61) = (  12.8281694   2.5656339   2.5656339  )
        62           Si  tau(  62) = (  12.8281694   2.5656339  12.8281694  )
        63           Si  tau(  63) = (  12.8281694  12.8281694   2.5656339  )
        64           Si  tau(  64) = (  12.8281694  12.8281694  12.8281694  )

     number of k points=     4  gaussian smearing, width (Ry)=  0.0100
                       cart. coord. in units 2pi/alat
        k(    1) = (   0.0000000   0.0000000   0.0000000), wk =   0.2500000
        k(    2) = (   0.0000000   0.0000000  -0.0243605), wk =   0.7500000
        k(    3) = (   0.0000000  -0.0243605  -0.0243605), wk =   0.7500000
        k(    4) = (  -0.0243605  -0.0243605  -0.0243605), wk =   0.2500000

     Dense  grid:  1168287 G-vectors     FFT dimensions: ( 135, 135, 135)

     Smooth grid:   295907 G-vectors     FFT dimensions: (  90,  90,  90)

     Estimated max dynamical RAM per process >     651.85 MB

     Estimated total dynamical RAM >      22.92 GB

     Self-consistent Calculation

     iteration #  1     ecut=    40.00 Ry     beta=0.70
     ethr =  1.00E-02
Average number of iterations:     3.250000
     Ef =   0.4391090794248069

     total energy              =    -819.63132331 Ry
     Harris-Foulkes estimate   =       0.00000000 Ry
     estimated scf accuracy    <       1.82898725 Ry

     iteration #  2     ecut=    40.00 Ry     beta=0.70
     ethr =  6.88E-04
Average number of iterations:     2.000000
     Ef =   0.4626923504752694

     total energy              =    -819.75643167 Ry
     Harris-Foulkes estimate   =       0.00000000 Ry
     estimated scf accuracy    <       0.06750568 Ry

     iteration #  3     ecut=    40.00 Ry     beta=0.70
     ethr =  2.54E-05
Average number of iterations:    10.500000
     Ef =   0.4648651445863765

     total energy              =    -819.77500088 Ry
     Harris-Foulkes estimate   =       0.00000000 Ry
     estimated scf accuracy    <       0.00869321 Ry

     iteration #  4     ecut=    40.00 Ry     beta=0.70
     ethr =  3.27E-06
Average number of iterations:     9.500000
     Ef =   0.4641284657735700

     total energy              =    -819.77266195 Ry
     Harris-Foulkes estimate   =       0.00000000 Ry
     estimated scf accuracy    <       0.04952811 Ry

     iteration #  5     ecut=    40.00 Ry     beta=0.70
     ethr =  3.27E-06
Average number of iterations:     6.250000
     Ef =   0.4638898743544154

     total energy              =    -819.77954171 Ry
     Harris-Foulkes estimate   =       0.00000000 Ry
     estimated scf accuracy    <       0.00186901 Ry

     iteration #  6     ecut=    40.00 Ry     beta=0.70
     ethr =  7.03E-07
Average number of iterations:     2.250000
     Ef =   0.4639506473580831

     total energy              =    -819.77985226 Ry
     Harris-Foulkes estimate   =       0.00000000 Ry
     estimated scf accuracy    <       0.00018186 Ry

     iteration #  7     ecut=    40.00 Ry     beta=0.70
     ethr =  6.84E-08
Average number of iterations:     3.000000
     Ef =   0.4640316143625652

     total energy              =    -819.77987883 Ry
     Harris-Foulkes estimate   =       0.00000000 Ry
     estimated scf accuracy    <       0.00001576 Ry

     iteration #  8     ecut=    40.00 Ry     beta=0.70
     ethr =  5.92E-09
Average number of iterations:     3.000000
     Ef =   0.4640750764525790

     total energy              =    -819.77988215 Ry
     Harris-Foulkes estimate   =       0.00000000 Ry
     estimated scf accuracy    <       0.00000137 Ry

     iteration #  9     ecut=    40.00 Ry     beta=0.70
     ethr =  5.14E-10
Average number of iterations:     3.000000
     Ef =   0.4640926181915691

     total energy              =    -819.77988257 Ry
     Harris-Foulkes estimate   =       0.00000000 Ry
     estimated scf accuracy    <       0.00000018 Ry

     iteration # 10     ecut=    40.00 Ry     beta=0.70
     ethr =  6.80E-11
Average number of iterations:     3.000000
     Ef =   0.4640952516342897

     total energy              =    -819.77988259 Ry
     Harris-Foulkes estimate   =       0.00000000 Ry
     estimated scf accuracy    <       0.00000006 Ry

     iteration # 11     ecut=    40.00 Ry     beta=0.70
     ethr =  2.39E-11
Average number of iterations:     2.000000
     Ef =   0.4640922425292889

     total energy              =    -819.77988259 Ry
     Harris-Foulkes estimate   =       0.00000000 Ry
     estimated scf accuracy    <          4.4E-09 Ry

     iteration # 12     ecut=    40.00 Ry     beta=0.70
     ethr =  1.67E-12
Average number of iterations:     2.250000
     Ef =   0.4640916542749386

     total energy              =    -819.77988259 Ry
     Harris-Foulkes estimate   =       0.00000000 Ry
     estimated scf accuracy    <          1.1E-10 Ry

     iteration # 13     ecut=    40.00 Ry     beta=0.70
     ethr =  1.00E-13
Average number of iterations:     1.000000
     Ef =   0.4640915960060331

     total energy              =    -819.77988259 Ry
     Harris-Foulkes estimate   =       0.00000000 Ry
     estimated scf accuracy    <          2.3E-11 Ry

     iteration # 14     ecut=    40.00 Ry     beta=0.70
     ethr =  1.00E-13
Average number of iterations:     1.000000
     Ef =   0.4640915786688132
     last descf =  -0.1927700966E-04

     End of self-consistent calculation

     End of self-consistent calculation

          k = 0.0000 0.0000 0.0000 ( 37073 PWs)   bands (ev):

   -18.1975 -18.1975 -18.1975 -18.1673 -18.1673  -5.9342  -4.9975  -4.8230
    -4.8230  -4.8230  -4.8210  -4.8210  -4.1146  -3.8624  -3.8624  -3.8624
    -3.8581  -3.8581  -3.8581  -3.8579  -3.8579  -3.8579  -3.8579  -3.8579
    -3.6100  -3.5665  -3.5665  -3.5665  -1.9432  -1.7638  -1.7638  -1.7638
    -1.7607  -1.7607  -1.6824  -1.5974  -1.5974  -1.5974  -1.5946  -1.5946
    -1.5946  -1.5939  -1.5939  -1.5939  -1.5937  -1.5937  -0.9553  -0.9378
    -0.9378  -0.9378   0.4470   0.5643   0.5643   0.5643   0.5678   0.5678
     0.5678   0.5688   0.5688   0.5712   0.5712   0.5712   2.1719   2.1719
     2.1719   2.1816   2.1816   2.1816   2.1825   2.1825   2.1825   2.1825
     2.1855   2.1855   2.2670   2.2727   2.2727   2.2727   2.2810   2.2810
     2.2810   2.2829   2.2829   2.2839   2.2839   2.2839   2.4693   2.5273
     2.5273   2.5309   2.5309   2.5309   3.2047   3.2047   3.2047   3.2049
     3.2049   3.2049   4.1649   4.1649   4.1649   4.1665   4.1665   4.1665
     4.1686   4.1686   4.1686   4.1773   4.1773   4.1773   4.7316   4.7316
     4.7316   4.7340   4.7340   4.7340   4.7341   4.7375   4.7375   4.7408
     4.7408   4.7408   4.8624   4.8624   4.8624   4.8656   4.8656   4.8713
     4.8713   4.8713   6.0689   6.0689   6.0689   6.6460   6.6805   6.6805
     6.6805   6.6817   6.6817   7.0850   7.1103   7.1103   7.1181   7.1181
     7.1181   7.4324   7.4911   7.4911   7.4911   8.3766   8.4253   8.4253
     8.4253   8.4278   8.4278   8.4278   8.4501   8.4501   8.4501   8.4507

          k = 0.0000 0.0000-0.0244 ( 36906 PWs)   bands (ev):

   -18.1975 -18.1975 -18.1975 -18.1673 -18.1673  -5.6930  -5.6304  -4.7871
    -4.5767  -4.5767  -4.5750  -4.5737  -4.5733  -4.5733  -4.5728  -3.8959
    -3.7297  -3.7297  -3.7272  -3.7267  -3.7265  -3.7265  -3.7265  -3.5312
    -3.5121  -2.9097  -2.7889  -2.7845  -2.7845  -2.7837  -2.7837  -2.7837
    -2.7832  -1.7975  -1.6865  -1.6865  -1.6819  -1.6814  -1.6814  -1.6814
    -1.6813  -0.6345  -0.5193  -0.5193  -0.5159  -0.5159  -0.5157  -0.5155
    -0.5153  -0.3741  -0.3453  -0.3431  -0.3431  -0.3369  -0.3366  -0.3357
    -0.3357   0.2859   0.3059   1.6807   1.7542   1.7542   1.7563   1.7568
     1.7589   1.7612   1.7612   1.7969   1.7969   1.7989   1.8036   1.8037
     1.8037   1.8039   1.8057   2.6206   2.6206   2.6208   2.6248   2.6253
     2.6273   2.6273   2.6296   3.3223   3.3238   3.3266   3.3266   3.3282
     3.3310   3.3347   3.3347   3.4477   3.4477   3.4533   3.4533   3.4610
     3.4621   3.4621   3.4625   3.4645   3.4659   3.4659   3.4677   3.5655
     3.5796   3.5796   3.5824   3.5840   3.5857   3.5857   3.5860   4.6240
     4.6266   4.6266   4.6285   4.6313   4.6313   4.6323   4.6403   4.6950
     4.7184   4.7934   4.7970   4.7970   4.7970   4.7970   4.8004   4.8038
     4.8038   5.2510   5.2510   5.2614   5.2614   6.5770   6.5911   7.5049
     7.5097   7.9254   7.9432   7.9450   7.9450   7.9479   7.9647   7.9665
     7.9665   8.0107   8.0236   8.2750   8.3280   8.3280   8.3301   8.3322
     8.3339   8.3339   8.3713   8.4354   8.4401   8.4406   8.4406   8.4452

          k = 0.0000-0.0244-0.0244 ( 37020 PWs)   bands (ev):

   -18.1975 -18.1975 -18.1975 -18.1673 -18.1673  -5.4837  -5.3634  -5.3634
    -5.3623  -4.5408  -4.3513  -4.3467  -4.3467  -4.3455  -4.3455  -4.3455
    -4.3453  -3.5007  -3.3152  -3.3152  -3.3097  -3.3097  -3.3096  -3.3096
    -3.3096  -3.1178  -3.0310  -3.0310  -3.0291  -3.0289  -3.0287  -3.0283
    -3.0283  -2.2279  -2.1717  -2.1704  -2.1704  -1.2336  -1.1779  -1.1729
    -1.1729  -0.8135  -0.7499  -0.7499  -0.7478  -0.7430  -0.7425  -0.7420
    -0.7420  -0.0065   0.0871   0.0884   0.0884   0.0886   0.0886   0.0889
     0.0892   0.7039   0.7523   0.7523   0.7537   0.7574   0.7589   0.7589
     0.7620   1.7249   1.7249   1.7260   1.7308   2.5668   2.5838   2.5839
     2.5839   2.5869   2.5906   2.5906   2.5907   2.6737   2.6737   2.6770
     2.6777   2.6777   2.6799   2.6800   2.6800   3.2840   3.2871   3.2878
     3.2878   3.2900   3.2900   3.2911   3.2919   3.3324   3.3579   3.3651
     3.3651   3.6322   3.6322   3.6342   3.6358   3.8900   3.8900   3.8941
     3.8945   3.8952   3.8952   3.8978   3.8990   4.1919   4.2095   4.2103
     4.2103   4.2129   4.2134   4.2134   4.2217   4.4173   4.4184   4.4184
     4.4302   4.4706   4.4706   4.4715   4.4733   4.4734   4.4748   4.4824
     4.4824   5.7695   5.7708   5.7812   5.7812   7.1675   7.1675   7.1687
     7.1889   7.9055   7.9257   7.9279   7.9279   7.9337   7.9427   7.9504
     7.9504   8.2027   8.2229   8.2239   8.2239   8.2248   8.2295   8.2295
     8.2658   8.6093   8.6165   8.6181   8.6181   8.6189   8.6366   8.6366

          k =-0.0244-0.0244-0.0244 ( 37056 PWs)   bands (ev):

   -18.1975 -18.1975 -18.1975 -18.1673 -18.1673  -5.3169  -5.1049  -5.1049
    -5.1049  -5.1030  -5.1026  -5.1026  -5.1026  -3.6155  -3.1919  -3.1919
    -3.1919  -3.1838  -3.1838  -3.1838  -3.1837  -3.1837  -3.1834  -3.1834
    -3.1834  -3.1833  -3.1830  -3.1830  -3.1830  -3.1828  -3.1828  -3.1828
    -3.1827  -3.1827  -3.1827  -3.1827  -3.1827  -0.5915  -0.3471  -0.3471
    -0.3471  -0.3349  -0.3349  -0.3349  -0.3344  -0.3343  -0.3343  -0.3343
    -0.3343  -0.3343  -0.3342  -0.3342  -0.3342  -0.3335  -0.3335  -0.3334
    -0.3334  -0.3334  -0.3319  -0.3319  -0.3319   2.0597   2.1102   2.1102
     2.1102   2.1132   2.1186   2.1186   2.1186   2.4670   2.4882   2.4882
     2.4882   2.5017   2.5017   2.5017   2.5021   2.5021   2.5021   2.5025
     2.5025   2.5025   2.5027   2.5027   2.5027   2.5027   2.5027   2.5028
     2.5078   2.5078   2.5078   2.5083   2.5083   3.8482   3.8482   3.8482
     3.8501   3.8501   3.8501   3.8540   3.8540   3.8540   3.8547   3.8548
     3.8548   3.8548   3.8552   3.8552   3.8552   3.8552   3.8552   3.8553
     3.8575   3.8575   3.8612   3.8612   3.8612   5.2996   5.2996   5.2996
     5.3007   5.3007   5.3007   5.3012   5.3012   5.3016   5.3016   5.3016
     5.3026   5.3026   5.3245   5.3245   5.3245   7.3964   7.4862   7.4862
     7.4862   7.4878   7.4890   7.4890   7.4890   7.4893   7.4893   7.4894
     7.4894   7.4894   7.4898   7.4898   7.4898   7.4904   7.4904   7.4904
     7.5324   7.5324   7.5324   7.5393   7.5393   7.9110   7.9784   7.9823

     the Fermi energy is     6.3143 ev

!    total energy              =    -819.77988259 Ry
     Harris-Foulkes estimate   =       0.00000000 Ry
     estimated scf accuracy    <          5.3E-12 Ry

     The total energy is the sum of the following terms:

     one-electron contribution =     -48.97842293 Ry
     hartree contribution      =     151.40437497 Ry
     xc contribution           =    -328.89323656 Ry
     ewald contribution        =    -593.31242748 Ry
     band sum                  =       5.06622360 Ry
     deband                    =     -54.04464653 Ry
     smearing contrib. (-TS)   =      -0.00017059 Ry

     convergence has been achieved in  14 iterations
--------------------------------------------------------------------------------------------------------------------------------------------
name                                                                 count      total        min        max    average    self (%)
--------------------------------------------------------------------------------------------------------------------------------------------
Eigenproblem_elpa1|diag                                           :     61     1.1552     0.0052     0.0406     0.0189     100.00
Eigenproblem_elpa:transform_back                                  :     15     0.0148     0.0007     0.0014     0.0010     100.00
Eigenproblem_elpa:transform_to_standard                           :     15     0.0305     0.0018     0.0043     0.0020     100.00
qe|electrons                                                      :      1    96.2787    96.2787    96.2787    96.2787       0.00
qe|electrons|init                                                 :      1     5.0133     5.0133     5.0133     5.0133       3.77
qe|electrons|scf                                                  :      1    91.1776    91.1776    91.1776    91.1776       0.91
qe|init_run|hinit0                                                :      1     2.8915     2.8915     2.8915     2.8915       0.00
qe|init_run|hinit0|struc_fact                                     :      1     2.8872     2.8872     2.8872     2.8872     100.00
qe|mix                                                            :     14     1.2578     0.0046     0.1023     0.0898     100.00
qe|run_pwscf                                                      :      1   102.6539   102.6539   102.6539   102.6539       0.51
qe|run_pwscf|electrons                                            :      1    96.2788    96.2788    96.2788    96.2788       0.00
qe|run_pwscf|init_run                                             :      1     3.4862     3.4862     3.4862     3.4862      17.06
qe|run_pwscf|setup                                                :      1     0.0130     0.0130     0.0130     0.0130     100.00
qe|run_pwscf|setup_sirius                                         :      1     2.3533     2.3533     2.3533     2.3533       0.05
qe|v_ha                                                           :     15     0.6077     0.0400     0.0415     0.0405     100.00
qe|v_xc                                                           :     15     0.4233     0.0280     0.0283     0.0282     100.00
qe|veff                                                           :     14     5.1630     0.3628     0.3751     0.3688      20.32
sddk::FFT3D::FFT3D                                                :      2     0.0190     0.0062     0.0128     0.0095     100.00
sddk::FFT3D::transform                                            :   1644    22.0919     0.0091     0.0464     0.0134       0.14
sddk::FFT3D::transform_xy                                         :   1644    19.7324     0.0084     0.0203     0.0120     100.00
sddk::FFT3D::transform_z                                          :   1644     2.3294     0.0007     0.0199     0.0014       0.37
sddk::FFT3D::transform_z_serial                                   :   1644     1.8912     0.0007     0.0051     0.0012     100.00
sddk::FFT3D::transform_z|comm                                     :     49     0.4296     0.0064     0.0159     0.0088     100.00
sddk::Gvec::find_gvec_shells                                      :      3     0.1294     0.0049     0.1018     0.0431     100.00
sddk::Gvec::init                                                  :      3     0.1864     0.0075     0.1447     0.0621      30.55
sddk::matrix_storage::matrix_storage                              :     89     0.0424     0.0000     0.0093     0.0005     100.00
sddk::matrix_storage::remap_backward                              :     61     0.8706     0.0002     0.1842     0.0143     100.00
sddk::matrix_storage::remap_forward                               :     75     1.1631     0.0003     0.0570     0.0155     100.00
sddk::remap_gvec_to_shells|init                                   :      1     0.0243     0.0243     0.0243     0.0243     100.00
sddk::wave_functions::inner                                       :    168     4.4654     0.0007     0.3445     0.0266     100.00
sddk::wave_functions::orthogonalize                               :     46     7.6452     0.0317     0.3560     0.1662       4.97
sddk::wave_functions::orthogonalize|potrf                         :     46     0.0206     0.0000     0.0014     0.0004     100.00
sddk::wave_functions::transform                                   :    248     9.6662     0.0009     0.1685     0.0390      93.09
sddk::wave_functions::transform|init                              :    248     0.6677     0.0000     0.0139     0.0027     100.00
sirius::Augmentation_operator::generate_pw_coeffs                 :      2     0.7615     0.3793     0.3822     0.3808     100.00
sirius::Band::apply_h_o                                           :     61    49.4293     0.0992     2.0454     0.8103       0.37
sirius::Band::diag_pseudo_potential                               :     14    64.7668     1.9887     8.3879     4.6262       0.34
sirius::Band::diag_pseudo_potential_davidson                      :     14    64.5221     1.9763     8.3690     4.6087       0.00
sirius::Band::diag_pseudo_potential_davidson|alloc                :     14     0.0173     0.0006     0.0022     0.0012      99.94
sirius::Band::diag_pseudo_potential_davidson|evp                  :     60     1.1890     0.0059     0.0406     0.0198       0.42
sirius::Band::diag_pseudo_potential_davidson|iter                 :     14    63.8792     1.9293     8.3234     4.5628       0.38
sirius::Band::diag_pseudo_potential_davidson|update_phi           :     14     1.1068     0.0364     0.1043     0.0791       0.01
sirius::Band::get_h_diag                                          :     14     0.3198     0.0223     0.0232     0.0228     100.00
sirius::Band::get_o_diag                                          :     14     0.3050     0.0217     0.0219     0.0218     100.00
sirius::Band::initialize_subspace                                 :      1     2.7444     2.7444     2.7444     2.7444       8.68
sirius::Band::initialize_subspace|kp                              :      1     2.4517     2.4517     2.4517     2.4517       2.90
sirius::Band::initialize_subspace|kp|wf                           :      1     0.0527     0.0527     0.0527     0.0527     100.00
sirius::Band::residuals                                           :     60     3.5593     0.0000     0.1540     0.0593       0.35
sirius::Band::residuals_aux                                       :     49     0.7210     0.0001     0.0653     0.0147     100.00
sirius::Band::set_subspace_mtrx                                   :     76     2.9201     0.0078     0.3446     0.0384       0.64
sirius::Band::solve_for_kset                                      :     14    71.6395     2.0398     9.2885     5.1171       8.59
sirius::Beta_projectors::Beta_projectors                          :      1     0.0115     0.0115     0.0115     0.0115       0.12
sirius::Beta_projectors::generate_pw_coefs_t                      :      1     0.0115     0.0115     0.0115     0.0115     100.00
sirius::Beta_projectors_base::generate                            :     75     4.3437     0.0370     0.1046     0.0579     100.00
sirius::Beta_projectors_base::inner                               :     75    10.2779     0.0175     0.3238     0.1370     100.00
sirius::DFT_ground_state::ewald_energy                            :      1     0.0364     0.0364     0.0364     0.0364     100.00
sirius::Density::add_k_point_contribution_dm                      :     14     3.3974     0.2419     0.2432     0.2427       0.28
sirius::Density::add_k_point_contribution_rg                      :     14     3.9830     0.2819     0.2865     0.2845      21.98
sirius::Density::augment                                          :     14     2.5024     0.1661     0.1905     0.1787       0.07
sirius::Density::generate_pseudo_core_charge_density              :      1     0.2579     0.2579     0.2579     0.2579       0.04
sirius::Density::generate_rho_aug                                 :     14     2.5008     0.1660     0.1904     0.1786      18.93
sirius::Density::generate_rho_aug|gemm                            :     28     1.0115     0.0242     0.0468     0.0361     100.00
sirius::Density::generate_rho_aug|phase_fac                       :     28     0.3233     0.0004     0.0241     0.0115     100.00
sirius::Density::generate_rho_aug|sum                             :     28     0.6925     0.0212     0.0273     0.0247     100.00
sirius::Density::generate_valence                                 :     14    10.9726     0.7673     0.8227     0.7838       3.71
sirius::Density::initial_density                                  :      1     0.2953     0.2953     0.2953     0.2953       5.07
sirius::K_point::initialize                                       :      1     0.0261     0.0261     0.0261     0.0261       5.92
sirius::Local_operator::apply_h                                   :     61    21.8489     0.0213     0.9673     0.3582      14.53
sirius::Local_operator::prepare                                   :     30     0.7988     0.0014     0.0546     0.0266      28.59
sirius::Non_local_operator::apply                                 :    122    16.1624     0.0110     0.3243     0.1325     100.00
sirius::Periodic_function::inner                                  :     42     0.1590     0.0027     0.0048     0.0038      62.60
sirius::Potential::Potential                                      :      1     1.0952     1.0952     1.0952     1.0952       1.65
sirius::Potential::generate_D_operator_matrix                     :     15     0.9758     0.0628     0.0792     0.0651     100.00
sirius::Potential::generate_local_potential                       :      1     1.0772     1.0772     1.0772     1.0772       0.01
sirius::Radial_integrals|aug                                      :      1     0.0676     0.0676     0.0676     0.0676     100.00
sirius::Radial_integrals|beta                                     :      2     1.2070     0.5767     0.6303     0.6035     100.00
sirius::Radial_integrals|rho_core_pseudo                          :      1     0.1672     0.1672     0.1672     0.1672     100.00
sirius::Radial_integrals|rho_pseudo                               :      1     0.1604     0.1604     0.1604     0.1604     100.00
sirius::Radial_integrals|vloc                                     :      1     0.9731     0.9731     0.9731     0.9731     100.00
sirius::Simulation_context::initialize                            :      1     2.3260     2.3260     2.3260     2.3260       0.01
sirius::Simulation_context_base::initialize                       :      1     1.5643     1.5643     1.5643     1.5643       2.93
sirius::Simulation_context_base::make_periodic_function           :      3     0.1266     0.0326     0.0605     0.0422     100.00
sirius::Smooth_periodic_function::fft_transform                   :     63     2.7468     0.0236     0.0733     0.0436      33.13
sirius::Smooth_periodic_function::gather_f_pw                     :     46     0.7957     0.0069     0.0239     0.0173     100.00
sirius::Unit_cell::find_nearest_neighbours                        :      1     0.0124     0.0124     0.0124     0.0124     100.00
sirius::Unit_cell::initialize                                     :      1     0.0216     0.0216     0.0216     0.0216       0.60
sirius_api::sirius_get_pw_coeffs                                  :     17     0.4847     0.0250     0.0298     0.0285      20.41
sirius_api::sirius_set_pw_coeffs                                  :     31     2.5098     0.0727     0.0900     0.0810      43.47
--------------------------------------------------------------------------------------------------------------------------------------------
+global_timer (  102.6548s, 0.00 % of self, 100.00 % of total)
|--qe|run_pwscf (  102.6539s, 100.00 %) 
qe|electrons (   96.2787s, 0.00 % of self, 93.79 % of total)
|--qe|electrons|scf (   91.1776s, 94.70 %) 
|--qe|electrons|init (    5.0133s, 5.21 %) 
|--sirius_api::sirius_set_pw_coeffs (    0.0878s, 0.09 %) 
qe|electrons|init (    5.0133s, 3.77 % of self, 4.88 % of total)
|--sirius::Band::initialize_subspace (    2.7444s, 54.74 %) 
|--sirius::Potential::Potential (    1.0952s, 21.85 %) 
|--sirius::Density::initial_density (    0.2953s, 5.89 %) 
|--sirius::Density::generate_pseudo_core_charge_density (    0.2579s, 5.14 %) 
|--sirius_api::sirius_set_pw_coeffs (    0.1669s, 3.33 %) 
|--sirius_api::sirius_get_pw_coeffs (    0.0799s, 1.59 %) 
|--sirius::Potential::generate_D_operator_matrix (    0.0792s, 1.58 %) 
|--qe|v_ha (    0.0410s, 0.82 %) 
|--sirius::DFT_ground_state::ewald_energy (    0.0364s, 0.73 %) 
|--qe|v_xc (    0.0280s, 0.56 %) 
|--sirius::Band::Band (    0.0000s, 0.00 %) 
qe|electrons|scf (   91.1776s, 0.91 % of self, 88.82 % of total)
|--sirius::Band::solve_for_kset (   71.6395s, 78.57 %) 
|--sirius::Density::generate_valence (   10.9726s, 12.03 %) 
|--qe|veff (    5.1630s, 5.66 %) 
|--qe|mix (    1.2578s, 1.38 %) 
|--sirius::Smooth_periodic_function::fft_transform (    0.8083s, 0.89 %) 
|--sirius_api::sirius_get_pw_coeffs (    0.4048s, 0.44 %) 
|--sirius::Periodic_function::inner (    0.0995s, 0.11 %) 
qe|init_run|hinit0 (    2.8915s, 0.00 % of self, 2.82 % of total)
|--qe|init_run|hinit0|struc_fact (    2.8872s, 99.85 %) 
|--qe|init_run|hinit0|init_us_1 (    0.0038s, 0.13 %) 
|--qe|init_run|hinit0|init_igk (    0.0004s, 0.01 %) 
|--qe|init_run|hinit0|init_vloc (    0.0000s, 0.00 %) 
|--qe|init_run|hinit0|setlocal (    0.0000s, 0.00 %) 
|--qe|init_run|hinit0|init_at_1 (    0.0000s, 0.00 %) 
|--qe|init_run|hinit0|set_rhoc (    0.0000s, 0.00 %) 
qe|run_pwscf (  102.6539s, 0.51 % of self, 100.00 % of total)
|--qe|run_pwscf|electrons (   96.2788s, 93.79 %) 
|--qe|run_pwscf|init_run (    3.4862s, 3.40 %) 
|--qe|run_pwscf|setup_sirius (    2.3533s, 2.29 %) 
|--qe|run_pwscf|setup (    0.0130s, 0.01 %) 
|--qe|run_pwscf|ions (    0.0000s, 0.00 %) 
|--qe|run_pwscf|punch (    0.0000s, 0.00 %) 
|--qe|run_pwscf|forces (    0.0000s, 0.00 %) 
|--qe|run_pwscf|stress (    0.0000s, 0.00 %) 
qe|run_pwscf|electrons (   96.2788s, 0.00 % of self, 93.79 % of total)
|--qe|electrons (   96.2787s, 100.00 %) 
qe|run_pwscf|init_run (    3.4862s, 17.06 % of self, 3.40 % of total)
|--qe|init_run|hinit0 (    2.8915s, 82.94 %) 
|--qe|init_run|potinit (    0.0000s, 0.00 %) 
|--qe|init_run|newd (    0.0000s, 0.00 %) 
qe|run_pwscf|setup_sirius (    2.3533s, 0.05 % of self, 2.29 % of total)
|--sirius::Simulation_context::initialize (    2.3260s, 98.84 %) 
|--sirius::K_point::initialize (    0.0261s, 1.11 %) 
|--sirius::K_point_set::add_kpoints (    0.0001s, 0.00 %) 
|--sirius::K_point_set::K_point_set (    0.0000s, 0.00 %) 
qe|veff (    5.1630s, 20.32 % of self, 5.03 % of total)
|--sirius_api::sirius_set_pw_coeffs (    2.2552s, 43.68 %) 
|--sirius::Potential::generate_D_operator_matrix (    0.8966s, 17.37 %) 
|--qe|v_ha (    0.5667s, 10.98 %) 
|--qe|v_xc (    0.3953s, 7.66 %) 
sddk::FFT3D::transform (   22.0919s, 0.14 % of self, 21.52 % of total)
|--sddk::FFT3D::transform_xy (   19.7324s, 89.32 %) 
|--sddk::FFT3D::transform_z (    2.3294s, 10.54 %) 
sddk::FFT3D::transform_z (    2.3294s, 0.37 % of self, 2.27 % of total)
|--sddk::FFT3D::transform_z_serial (    1.8912s, 81.19 %) 
|--sddk::FFT3D::transform_z|comm (    0.4296s, 18.44 %) 
sddk::wave_functions::orthogonalize (    7.6452s, 4.97 % of self, 7.45 % of total)
|--sddk::wave_functions::transform (    5.6719s, 74.19 %) 
|--sddk::wave_functions::inner (    1.5639s, 20.46 %) 
|--sddk::wave_functions::orthogonalize|potrf (    0.0206s, 0.27 %) 
|--sddk::wave_functions::orthogonalize|trtri (    0.0089s, 0.12 %) 
sddk::wave_functions::transform (    9.6662s, 93.09 % of self, 9.42 % of total)
|--sddk::wave_functions::transform|init (    0.6677s, 6.91 %) 
sirius::Band::apply_h_o (   49.4293s, 0.37 % of self, 48.15 % of total)
|--sirius::Local_operator::apply_h (   21.8489s, 44.20 %) 
|--sirius::Non_local_operator::apply (   16.1624s, 32.70 %) 
|--sirius::Beta_projectors_base::inner (    7.7728s, 15.73 %) 
|--sirius::Beta_projectors_base::generate (    3.4608s, 7.00 %) 
sirius::Band::diag_pseudo_potential (   64.7668s, 0.34 % of self, 63.09 % of total)
|--sirius::Band::diag_pseudo_potential_davidson (   64.5221s, 99.62 %) 
|--sirius::Local_operator::prepare (    0.0211s, 0.03 %) 
|--sddk::FFT3D::prepare (    0.0003s, 0.00 %) 
|--sirius::Non_local_operator::Non_local_operator (    0.0001s, 0.00 %) 
sirius::Band::diag_pseudo_potential_davidson (   64.5221s, 0.00 % of self, 62.85 % of total)
|--sirius::Band::diag_pseudo_potential_davidson|iter (   63.8792s, 99.00 %) 
|--sirius::Band::get_h_diag (    0.3198s, 0.50 %) 
|--sirius::Band::get_o_diag (    0.3050s, 0.47 %) 
|--sirius::Band::diag_pseudo_potential_davidson|alloc (    0.0173s, 0.03 %) 
|--sirius::Band::diag_pseudo_potential_davidson|wf (    0.0002s, 0.00 %) 
|--sirius::Beta_projectors_base::dismiss (    0.0000s, 0.00 %) 
sirius::Band::diag_pseudo_potential_davidson|evp (    1.1890s, 0.42 % of self, 1.16 % of total)
|--Eigenproblem_elpa1|diag (    1.1444s, 96.25 %) 
|--Eigenproblem_elpa:transform_to_standard (    0.0262s, 2.20 %) 
|--Eigenproblem_elpa:transform_back (    0.0134s, 1.13 %) 
sirius::Band::diag_pseudo_potential_davidson|iter (   63.8792s, 0.38 % of self, 62.23 % of total)
|--sirius::Band::apply_h_o (   47.3840s, 74.18 %) 
|--sddk::wave_functions::orthogonalize (    7.6452s, 11.97 %) 
|--sirius::Band::residuals (    3.5593s, 5.57 %) 
|--sirius::Band::set_subspace_mtrx (    2.7544s, 4.31 %) 
|--sirius::Band::diag_pseudo_potential_davidson|evp (    1.1890s, 1.86 %) 
|--sirius::Band::diag_pseudo_potential_davidson|update_phi (    1.1068s, 1.73 %) 
sirius::Band::diag_pseudo_potential_davidson|update_phi (    1.1068s, 0.01 % of self, 1.08 % of total)
|--sddk::wave_functions::transform (    1.1067s, 99.99 %) 
sirius::Band::initialize_subspace (    2.7444s, 8.68 % of self, 2.67 % of total)
|--sirius::Band::initialize_subspace|kp (    2.4517s, 89.33 %) 
|--sirius::Local_operator::prepare (    0.0546s, 1.99 %) 
sirius::Band::initialize_subspace|kp (    2.4517s, 2.90 % of self, 2.39 % of total)
|--sirius::Band::apply_h_o (    2.0454s, 83.43 %) 
|--sirius::Band::set_subspace_mtrx (    0.1657s, 6.76 %) 
|--sddk::wave_functions::transform (    0.0617s, 2.52 %) 
|--sirius::Band::initialize_subspace|kp|wf (    0.0527s, 2.15 %) 
|--sddk::matrix_storage::matrix_storage (    0.0369s, 1.51 %) 
|--Eigenproblem_elpa1|diag (    0.0108s, 0.44 %) 
|--Eigenproblem_elpa:transform_to_standard (    0.0043s, 0.18 %) 
|--sirius::Local_operator::prepare (    0.0016s, 0.06 %) 
|--Eigenproblem_elpa:transform_back (    0.0014s, 0.06 %) 
|--sddk::FFT3D::prepare (    0.0000s, 0.00 %) 
|--sirius::Non_local_operator::Non_local_operator (    0.0000s, 0.00 %) 
|--sirius::Beta_projectors_base::dismiss (    0.0000s, 0.00 %) 
|--sirius::Beta_projectors_base::prepare (    0.0000s, 0.00 %) 
sirius::Band::residuals (    3.5593s, 0.35 % of self, 3.47 % of total)
|--sddk::wave_functions::transform (    2.8260s, 79.40 %) 
|--sirius::Band::residuals_aux (    0.7210s, 20.26 %) 
sirius::Band::set_subspace_mtrx (    2.9201s, 0.64 % of self, 2.84 % of total)
|--sddk::wave_functions::inner (    2.9015s, 99.36 %) 
sirius::Band::solve_for_kset (   71.6395s, 8.59 % of self, 69.79 % of total)
|--sirius::Band::diag_pseudo_potential (   64.7668s, 90.41 %) 
|--sirius::Local_operator::prepare (    0.7215s, 1.01 %) 
|--sirius::K_point_set::sync_band_energies (    0.0002s, 0.00 %) 
sirius::Density::add_k_point_contribution_dm (    3.3974s, 0.28 % of self, 3.31 % of total)
|--sirius::Beta_projectors_base::inner (    2.5051s, 73.73 %) 
|--sirius::Beta_projectors_base::generate (    0.8829s, 25.99 %) 
|--sirius::Beta_projectors_base::dismiss (    0.0000s, 0.00 %) 
|--sirius::Beta_projectors_base::prepare (    0.0000s, 0.00 %) 
sirius::Density::add_k_point_contribution_rg (    3.9830s, 21.98 % of self, 3.88 % of total)
|--sddk::FFT3D::transform (    3.1072s, 78.01 %) 
|--sddk::FFT3D::prepare (    0.0005s, 0.01 %) 
sirius::Density::augment (    2.5024s, 0.07 % of self, 2.44 % of total)
|--sirius::Density::generate_rho_aug (    2.5008s, 99.93 %) 
sirius::Density::generate_rho_aug (    2.5008s, 18.93 % of self, 2.44 % of total)
|--sirius::Density::generate_rho_aug|gemm (    1.0115s, 40.45 %) 
|--sirius::Density::generate_rho_aug|sum (    0.6925s, 27.69 %) 
|--sirius::Density::generate_rho_aug|phase_fac (    0.3233s, 12.93 %) 
sirius::Density::generate_valence (   10.9726s, 3.71 % of self, 10.69 % of total)
|--sirius::Density::add_k_point_contribution_rg (    3.9830s, 36.30 %) 
|--sirius::Density::add_k_point_contribution_dm (    3.3974s, 30.96 %) 
|--sirius::Density::augment (    2.5024s, 22.81 %) 
|--sirius::Smooth_periodic_function::fft_transform (    0.3320s, 3.03 %) 
|--sddk::matrix_storage::remap_forward (    0.2501s, 2.28 %) 
|--sirius::Smooth_periodic_function::gather_f_pw (    0.0989s, 0.90 %) 
|--sddk::FFT3D::prepare (    0.0015s, 0.01 %) 
sirius::Local_operator::apply_h (   21.8489s, 14.53 % of self, 21.28 % of total)
|--sddk::FFT3D::transform (   16.8909s, 77.31 %) 
|--sddk::matrix_storage::remap_forward (    0.9131s, 4.18 %) 
|--sddk::matrix_storage::remap_backward (    0.8706s, 3.98 %) 
sirius::Potential::Potential (    1.0952s, 1.65 % of self, 1.07 % of total)
|--sirius::Potential::generate_local_potential (    1.0772s, 98.35 %) 
|--sirius::Potential::init (    0.0000s, 0.00 %) 
sirius::Potential::generate_local_potential (    1.0772s, 0.01 % of self, 1.05 % of total)
|--sirius::Radial_integrals|vloc (    0.9731s, 90.34 %) 
|--sirius::Simulation_context_base::make_periodic_function (    0.0605s, 5.62 %) 
|--sirius::Smooth_periodic_function::fft_transform (    0.0434s, 4.03 %) 
sirius::Simulation_context::initialize (    2.3260s, 0.01 % of self, 2.27 % of total)
|--sirius::Simulation_context_base::initialize (    1.5643s, 67.25 %) 
|--sirius::Augmentation_operator::generate_pw_coeffs (    0.7615s, 32.74 %) 
sirius::Simulation_context_base::initialize (    1.5643s, 2.93 % of self, 1.52 % of total)
|--sirius::Radial_integrals|beta (    1.2070s, 77.16 %) 
|--sddk::Gvec::init (    0.1788s, 11.43 %) 
|--sirius::Radial_integrals|aug (    0.0676s, 4.32 %) 
|--sddk::remap_gvec_to_shells|init (    0.0243s, 1.56 %) 
|--sirius::Unit_cell::initialize (    0.0216s, 1.38 %) 
|--sddk::FFT3D::FFT3D (    0.0190s, 1.21 %) 
|--sddk::FFT3D::prepare (    0.0001s, 0.00 %) 
sirius::Smooth_periodic_function::fft_transform (    2.7468s, 33.13 % of self, 2.68 % of total)
|--sddk::FFT3D::transform (    1.8369s, 66.87 %) 
sirius_api::sirius_set_pw_coeffs (    2.5098s, 43.47 % of self, 2.44 % of total)
|--sirius::Smooth_periodic_function::fft_transform (    1.4187s, 56.53 %) 

     init_run     :      3.46s CPU      3.49s WALL (       1 calls)

     Called by init_run:

     Called by electrons:
     v_of_rho     :      1.03s CPU      1.03s WALL (      15 calls)
     mix_rho      :      1.20s CPU      1.20s WALL (      14 calls)
     sym_rho      :      0.18s CPU      0.18s WALL (      14 calls)

     Called by c_bands:

     Called by sum_band:

     Called by *egterg:

     Called by h_psi:

     General routines
     fft          :      2.54s CPU      2.54s WALL (      88 calls)

     Parallel routines
     fft_scatter  :      1.30s CPU      1.31s WALL (      88 calls)

     PWSCF        :  1m39.77s CPU     1m42.73s WALL


   This run was terminated on:  11: 9:49  25Sep2017            

=------------------------------------------------------------------------------=
   JOB DONE.
=------------------------------------------------------------------------------=
