
     Program PWSCF v.6.1 starts on 25Sep2017 at 11: 9:54 

     This program is part of the open-source Quantum ESPRESSO suite
     for quantum simulation of materials; please cite
         "P. Giannozzi et al., J. Phys.:Condens. Matter 21 395502 (2009);
          URL http://www.quantum-espresso.org", 
     in publications or presentations arising from this work. More details at
     http://www.quantum-espresso.org/quote

     Parallel version (MPI & OpenMP), running on      36 processor cores
     Number of MPI processes:                 4
     Threads/MPI process:                     9
     K-points division:     npool     =       4
     Reading input from pw.in
     Message from routine read_cards :
     DEPRECATED: no units specified in CELL_PARAMETERS card
SIRIUS 4.8, git hash: 254b482b5c8fe0c26b0b4a747548b4baa50a6567

     Current dimensions of program PWSCF are:
     Max number of different atomic species (ntypx) = 10
     Max number of k-points (npk) =  40000
     Max angular momentum in pseudopotentials (lmaxx) =  3

     Subspace diagonalization in iterative solution of the eigenvalue problem:
     a serial algorithm will be used


   Info: using nr1, nr2, nr3 values from input

     G-vector sticks info
     --------------------
     sticks:   dense  smooth     PW     G-vecs:    dense   smooth      PW
     Sum       13429    5377   1457              1168287   295907   41851



     bravais-lattice index     =            0
     lattice parameter (alat)  =       1.0000  a.u.
     unit-cell volume          =    8646.7719 (a.u.)^3
     number of atoms/cell      =           64
     number of atomic types    =            2
     number of electrons       =       266.00
     number of Kohn-Sham states=          160
     kinetic-energy cutoff     =      40.0000  Ry
     charge density cutoff     =     400.0000  Ry
     convergence threshold     =      1.0E-11
     mixing beta               =       0.7000
     number of iterations used =            8  plain     mixing
     Exchange-correlation      = SLA  PZ   NOGX NOGC ( 1  1  0  0 0 0)

     celldm(1)=   1.000000  celldm(2)=   0.000000  celldm(3)=   0.000000
     celldm(4)=   0.000000  celldm(5)=   0.000000  celldm(6)=   0.000000

     crystal axes: (cart. coord. in units of alat)
               a(1) = (  20.525071   0.000000   0.000000 )  
               a(2) = (   0.000000  20.525071   0.000000 )  
               a(3) = (   0.000000   0.000000  20.525071 )  

     reciprocal axes: (cart. coord. in units 2 pi/alat)
               b(1) = (  0.048721  0.000000  0.000000 )  
               b(2) = (  0.000000  0.048721  0.000000 )  
               b(3) = (  0.000000  0.000000  0.048721 )  


     PseudoPot. # 1 for Ge read from file:
     ./ge_lda_v1.4.uspp.F.UPF
     MD5 check sum: bf9d52b59cc8a669818bb2b52e0c2ba0
     Pseudo is Ultrasoft + core correction, Zval = 14.0
     Generated by new atomic code, or converted to UPF format
     Using radial grid of  873 points,  6 beta functions with: 
                l(1) =   0
                l(2) =   0
                l(3) =   1
                l(4) =   1
                l(5) =   2
                l(6) =   2
     Q(r) pseudized with  8 coefficients,  rinner =    1.400   1.400   1.400
                                                       1.400   1.400

     PseudoPot. # 2 for Si read from file:
     ./si_lda_v1.uspp.F.UPF
     MD5 check sum: b5ade7b37ee992b02096e360e546dc2d
     Pseudo is Ultrasoft + core correction, Zval =  4.0
     Generated by new atomic code, or converted to UPF format
     Using radial grid of  899 points,  6 beta functions with: 
                l(1) =   0
                l(2) =   0
                l(3) =   1
                l(4) =   1
                l(5) =   2
                l(6) =   2
     Q(r) pseudized with  8 coefficients,  rinner =    0.900   0.900   0.900
                                                       0.900   0.900

     atomic species   valence    mass     pseudopotential
        Ge            14.00    72.61000     Ge( 1.00)
        Si             4.00    28.08550     Si( 1.00)

     24 Sym. Ops. (no inversion) found



   Cartesian axes

     site n.     atom                  positions (a.u.)
         1           Ge  tau(   1) = (   0.0000000   0.0000000   0.0000000  )
         2           Si  tau(   2) = (   0.0000000   0.0000000  10.2625355  )
         3           Si  tau(   3) = (   0.0000000  10.2625355   0.0000000  )
         4           Si  tau(   4) = (   0.0000000  10.2625355  10.2625355  )
         5           Si  tau(   5) = (  10.2625355   0.0000000   0.0000000  )
         6           Si  tau(   6) = (  10.2625355   0.0000000  10.2625355  )
         7           Si  tau(   7) = (  10.2625355  10.2625355   0.0000000  )
         8           Si  tau(   8) = (  10.2625355  10.2625355  10.2625355  )
         9           Si  tau(   9) = (   0.0000000   5.1312678   5.1312678  )
        10           Si  tau(  10) = (   0.0000000   5.1312678  15.3938033  )
        11           Si  tau(  11) = (   0.0000000  15.3938033   5.1312678  )
        12           Si  tau(  12) = (   0.0000000  15.3938033  15.3938033  )
        13           Si  tau(  13) = (  10.2625355   5.1312678   5.1312678  )
        14           Si  tau(  14) = (  10.2625355   5.1312678  15.3938033  )
        15           Si  tau(  15) = (  10.2625355  15.3938033   5.1312678  )
        16           Si  tau(  16) = (  10.2625355  15.3938033  15.3938033  )
        17           Si  tau(  17) = (   5.1312678   0.0000000   5.1312678  )
        18           Si  tau(  18) = (   5.1312678   0.0000000  15.3938033  )
        19           Si  tau(  19) = (   5.1312678  10.2625355   5.1312678  )
        20           Si  tau(  20) = (   5.1312678  10.2625355  15.3938033  )
        21           Si  tau(  21) = (  15.3938033   0.0000000   5.1312678  )
        22           Si  tau(  22) = (  15.3938033   0.0000000  15.3938033  )
        23           Si  tau(  23) = (  15.3938033  10.2625355   5.1312678  )
        24           Si  tau(  24) = (  15.3938033  10.2625355  15.3938033  )
        25           Si  tau(  25) = (   5.1312678   5.1312678   0.0000000  )
        26           Si  tau(  26) = (   5.1312678   5.1312678  10.2625355  )
        27           Si  tau(  27) = (   5.1312678  15.3938033   0.0000000  )
        28           Si  tau(  28) = (   5.1312678  15.3938033  10.2625355  )
        29           Si  tau(  29) = (  15.3938033   5.1312678   0.0000000  )
        30           Si  tau(  30) = (  15.3938033   5.1312678  10.2625355  )
        31           Si  tau(  31) = (  15.3938033  15.3938033   0.0000000  )
        32           Si  tau(  32) = (  15.3938033  15.3938033  10.2625355  )
        33           Si  tau(  33) = (   7.6969016   7.6969016   2.5656339  )
        34           Si  tau(  34) = (   7.6969016   7.6969016  12.8281694  )
        35           Si  tau(  35) = (   7.6969016  17.9594371   2.5656339  )
        36           Si  tau(  36) = (   7.6969016  17.9594371  12.8281694  )
        37           Si  tau(  37) = (  17.9594371   7.6969016   2.5656339  )
        38           Si  tau(  38) = (  17.9594371   7.6969016  12.8281694  )
        39           Si  tau(  39) = (  17.9594371  17.9594371   2.5656339  )
        40           Si  tau(  40) = (  17.9594371  17.9594371  12.8281694  )
        41           Si  tau(  41) = (   7.6969016   2.5656339   7.6969016  )
        42           Si  tau(  42) = (   7.6969016   2.5656339  17.9594371  )
        43           Si  tau(  43) = (   7.6969016  12.8281694   7.6969016  )
        44           Si  tau(  44) = (   7.6969016  12.8281694  17.9594371  )
        45           Si  tau(  45) = (  17.9594371   2.5656339   7.6969016  )
        46           Si  tau(  46) = (  17.9594371   2.5656339  17.9594371  )
        47           Si  tau(  47) = (  17.9594371  12.8281694   7.6969016  )
        48           Si  tau(  48) = (  17.9594371  12.8281694  17.9594371  )
        49           Si  tau(  49) = (   2.5656339   7.6969016   7.6969016  )
        50           Si  tau(  50) = (   2.5656339   7.6969016  17.9594371  )
        51           Si  tau(  51) = (   2.5656339  17.9594371   7.6969016  )
        52           Si  tau(  52) = (   2.5656339  17.9594371  17.9594371  )
        53           Si  tau(  53) = (  12.8281694   7.6969016   7.6969016  )
        54           Si  tau(  54) = (  12.8281694   7.6969016  17.9594371  )
        55           Si  tau(  55) = (  12.8281694  17.9594371   7.6969016  )
        56           Si  tau(  56) = (  12.8281694  17.9594371  17.9594371  )
        57           Si  tau(  57) = (   2.5656339   2.5656339   2.5656339  )
        58           Si  tau(  58) = (   2.5656339   2.5656339  12.8281694  )
        59           Si  tau(  59) = (   2.5656339  12.8281694   2.5656339  )
        60           Si  tau(  60) = (   2.5656339  12.8281694  12.8281694  )
        61           Si  tau(  61) = (  12.8281694   2.5656339   2.5656339  )
        62           Si  tau(  62) = (  12.8281694   2.5656339  12.8281694  )
        63           Si  tau(  63) = (  12.8281694  12.8281694   2.5656339  )
        64           Si  tau(  64) = (  12.8281694  12.8281694  12.8281694  )

     number of k points=     4  gaussian smearing, width (Ry)=  0.0100
                       cart. coord. in units 2pi/alat
        k(    1) = (   0.0000000   0.0000000   0.0000000), wk =   0.2500000
        k(    2) = (   0.0000000   0.0000000  -0.0243605), wk =   0.7500000
        k(    3) = (   0.0000000  -0.0243605  -0.0243605), wk =   0.7500000
        k(    4) = (  -0.0243605  -0.0243605  -0.0243605), wk =   0.2500000

     Dense  grid:  1168287 G-vectors     FFT dimensions: ( 135, 135, 135)

     Smooth grid:   295907 G-vectors     FFT dimensions: (  90,  90,  90)

     Estimated max dynamical RAM per process >       5.73 GB

     Estimated total dynamical RAM >      22.90 GB

     Self-consistent Calculation

     iteration #  1     ecut=    40.00 Ry     beta=0.70
     ethr =  1.00E-02
Average number of iterations:     3.250000
     Ef =   0.4391088748637511

     total energy              =    -819.63132283 Ry
     Harris-Foulkes estimate   =       0.00000000 Ry
     estimated scf accuracy    <       1.82898951 Ry

     iteration #  2     ecut=    40.00 Ry     beta=0.70
     ethr =  6.88E-04
Average number of iterations:     2.000000
     Ef =   0.4626922001447916

     total energy              =    -819.75643155 Ry
     Harris-Foulkes estimate   =       0.00000000 Ry
     estimated scf accuracy    <       0.06750563 Ry

     iteration #  3     ecut=    40.00 Ry     beta=0.70
     ethr =  2.54E-05
Average number of iterations:    10.500000
     Ef =   0.4648651500811376

     total energy              =    -819.77500046 Ry
     Harris-Foulkes estimate   =       0.00000000 Ry
     estimated scf accuracy    <       0.00869406 Ry

     iteration #  4     ecut=    40.00 Ry     beta=0.70
     ethr =  3.27E-06
Average number of iterations:     9.500000
     Ef =   0.4641285026204178

     total energy              =    -819.77266190 Ry
     Harris-Foulkes estimate   =       0.00000000 Ry
     estimated scf accuracy    <       0.04952709 Ry

     iteration #  5     ecut=    40.00 Ry     beta=0.70
     ethr =  3.27E-06
Average number of iterations:     6.250000
     Ef =   0.4638898797960687

     total energy              =    -819.77954165 Ry
     Harris-Foulkes estimate   =       0.00000000 Ry
     estimated scf accuracy    <       0.00186959 Ry

     iteration #  6     ecut=    40.00 Ry     beta=0.70
     ethr =  7.03E-07
Average number of iterations:     2.250000
     Ef =   0.4639506409969913

     total energy              =    -819.77985226 Ry
     Harris-Foulkes estimate   =       0.00000000 Ry
     estimated scf accuracy    <       0.00018187 Ry

     iteration #  7     ecut=    40.00 Ry     beta=0.70
     ethr =  6.84E-08
Average number of iterations:     3.000000
     Ef =   0.4640316066928084

     total energy              =    -819.77987883 Ry
     Harris-Foulkes estimate   =       0.00000000 Ry
     estimated scf accuracy    <       0.00001576 Ry

     iteration #  8     ecut=    40.00 Ry     beta=0.70
     ethr =  5.93E-09
Average number of iterations:     3.000000
     Ef =   0.4640750751260870

     total energy              =    -819.77988215 Ry
     Harris-Foulkes estimate   =       0.00000000 Ry
     estimated scf accuracy    <       0.00000137 Ry

     iteration #  9     ecut=    40.00 Ry     beta=0.70
     ethr =  5.14E-10
Average number of iterations:     3.000000
     Ef =   0.4640926157130831

     total energy              =    -819.77988257 Ry
     Harris-Foulkes estimate   =       0.00000000 Ry
     estimated scf accuracy    <       0.00000018 Ry

     iteration # 10     ecut=    40.00 Ry     beta=0.70
     ethr =  6.80E-11
Average number of iterations:     3.000000
     Ef =   0.4640952506886002

     total energy              =    -819.77988259 Ry
     Harris-Foulkes estimate   =       0.00000000 Ry
     estimated scf accuracy    <       0.00000006 Ry

     iteration # 11     ecut=    40.00 Ry     beta=0.70
     ethr =  2.39E-11
Average number of iterations:     2.000000
     Ef =   0.4640922425197794

     total energy              =    -819.77988259 Ry
     Harris-Foulkes estimate   =       0.00000000 Ry
     estimated scf accuracy    <          4.4E-09 Ry

     iteration # 12     ecut=    40.00 Ry     beta=0.70
     ethr =  1.67E-12
Average number of iterations:     2.250000
     Ef =   0.4640916543432825

     total energy              =    -819.77988259 Ry
     Harris-Foulkes estimate   =       0.00000000 Ry
     estimated scf accuracy    <          1.1E-10 Ry

     iteration # 13     ecut=    40.00 Ry     beta=0.70
     ethr =  1.00E-13
Average number of iterations:     1.000000
     Ef =   0.4640915963422360

     total energy              =    -819.77988259 Ry
     Harris-Foulkes estimate   =       0.00000000 Ry
     estimated scf accuracy    <          2.3E-11 Ry

     iteration # 14     ecut=    40.00 Ry     beta=0.70
     ethr =  1.00E-13
Average number of iterations:     1.000000
     Ef =   0.4640915790417255
     last descf =  -0.1944797181E-04

     End of self-consistent calculation

     End of self-consistent calculation

          k = 0.0000 0.0000 0.0000 ( 37073 PWs)   bands (ev):

   -18.1975 -18.1975 -18.1975 -18.1673 -18.1673  -5.9342  -4.9975  -4.8230
    -4.8230  -4.8230  -4.8210  -4.8210  -4.1146  -3.8624  -3.8624  -3.8624
    -3.8581  -3.8581  -3.8581  -3.8579  -3.8579  -3.8579  -3.8579  -3.8579
    -3.6100  -3.5665  -3.5665  -3.5665  -1.9432  -1.7638  -1.7638  -1.7638
    -1.7607  -1.7607  -1.6824  -1.5974  -1.5974  -1.5974  -1.5946  -1.5946
    -1.5946  -1.5939  -1.5939  -1.5939  -1.5937  -1.5937  -0.9553  -0.9378
    -0.9378  -0.9378   0.4470   0.5643   0.5643   0.5643   0.5678   0.5678
     0.5678   0.5688   0.5688   0.5712   0.5712   0.5712   2.1719   2.1719
     2.1719   2.1816   2.1816   2.1816   2.1825   2.1825   2.1825   2.1825
     2.1855   2.1855   2.2670   2.2727   2.2727   2.2727   2.2810   2.2810
     2.2810   2.2829   2.2829   2.2839   2.2839   2.2839   2.4693   2.5273
     2.5273   2.5309   2.5309   2.5309   3.2047   3.2047   3.2047   3.2049
     3.2049   3.2049   4.1649   4.1649   4.1649   4.1665   4.1665   4.1665
     4.1686   4.1686   4.1686   4.1773   4.1773   4.1773   4.7316   4.7316
     4.7316   4.7340   4.7340   4.7340   4.7341   4.7375   4.7375   4.7408
     4.7408   4.7408   4.8624   4.8624   4.8624   4.8656   4.8656   4.8713
     4.8713   4.8713   6.0689   6.0689   6.0689   6.6460   6.6805   6.6805
     6.6805   6.6817   6.6817   7.0850   7.1103   7.1103   7.1181   7.1181
     7.1181   7.4324   7.4911   7.4911   7.4911   8.3766   8.4253   8.4253
     8.4253   8.4278   8.4278   8.4278   8.4501   8.4501   8.4501   8.4507

          k = 0.0000 0.0000-0.0244 ( 36906 PWs)   bands (ev):

   -18.1975 -18.1975 -18.1975 -18.1673 -18.1673  -5.6930  -5.6304  -4.7871
    -4.5767  -4.5767  -4.5750  -4.5737  -4.5733  -4.5733  -4.5728  -3.8959
    -3.7297  -3.7297  -3.7272  -3.7267  -3.7265  -3.7265  -3.7265  -3.5312
    -3.5121  -2.9097  -2.7889  -2.7845  -2.7845  -2.7837  -2.7837  -2.7837
    -2.7832  -1.7975  -1.6865  -1.6865  -1.6819  -1.6814  -1.6814  -1.6814
    -1.6813  -0.6345  -0.5193  -0.5193  -0.5159  -0.5159  -0.5157  -0.5155
    -0.5153  -0.3741  -0.3453  -0.3431  -0.3431  -0.3369  -0.3366  -0.3357
    -0.3357   0.2859   0.3059   1.6807   1.7542   1.7542   1.7563   1.7568
     1.7589   1.7612   1.7612   1.7969   1.7969   1.7989   1.8036   1.8037
     1.8037   1.8039   1.8057   2.6206   2.6206   2.6208   2.6248   2.6253
     2.6273   2.6273   2.6296   3.3223   3.3238   3.3266   3.3266   3.3282
     3.3310   3.3347   3.3347   3.4477   3.4477   3.4533   3.4533   3.4610
     3.4621   3.4621   3.4625   3.4645   3.4659   3.4659   3.4677   3.5655
     3.5796   3.5796   3.5824   3.5840   3.5857   3.5857   3.5860   4.6240
     4.6266   4.6266   4.6285   4.6313   4.6313   4.6323   4.6403   4.6950
     4.7184   4.7934   4.7970   4.7970   4.7970   4.7970   4.8004   4.8038
     4.8038   5.2510   5.2510   5.2614   5.2614   6.5770   6.5911   7.5049
     7.5097   7.9254   7.9432   7.9450   7.9450   7.9479   7.9647   7.9665
     7.9665   8.0107   8.0236   8.2750   8.3280   8.3280   8.3301   8.3322
     8.3339   8.3339   8.3713   8.4354   8.4401   8.4406   8.4406   8.4452

          k = 0.0000-0.0244-0.0244 ( 37020 PWs)   bands (ev):

   -18.1975 -18.1975 -18.1975 -18.1673 -18.1673  -5.4837  -5.3634  -5.3634
    -5.3623  -4.5408  -4.3513  -4.3467  -4.3467  -4.3455  -4.3455  -4.3455
    -4.3453  -3.5007  -3.3152  -3.3152  -3.3097  -3.3097  -3.3096  -3.3096
    -3.3096  -3.1178  -3.0310  -3.0310  -3.0291  -3.0289  -3.0287  -3.0283
    -3.0283  -2.2279  -2.1717  -2.1704  -2.1704  -1.2336  -1.1779  -1.1729
    -1.1729  -0.8135  -0.7499  -0.7499  -0.7478  -0.7430  -0.7425  -0.7420
    -0.7420  -0.0065   0.0871   0.0884   0.0884   0.0886   0.0886   0.0889
     0.0892   0.7039   0.7523   0.7523   0.7537   0.7574   0.7589   0.7589
     0.7620   1.7249   1.7249   1.7260   1.7308   2.5668   2.5838   2.5839
     2.5839   2.5869   2.5906   2.5906   2.5907   2.6737   2.6737   2.6770
     2.6777   2.6777   2.6799   2.6800   2.6800   3.2840   3.2871   3.2878
     3.2878   3.2900   3.2900   3.2911   3.2919   3.3324   3.3579   3.3651
     3.3651   3.6322   3.6322   3.6342   3.6358   3.8900   3.8900   3.8941
     3.8945   3.8952   3.8952   3.8978   3.8990   4.1919   4.2095   4.2103
     4.2103   4.2129   4.2134   4.2134   4.2217   4.4173   4.4184   4.4184
     4.4302   4.4706   4.4706   4.4715   4.4733   4.4734   4.4748   4.4824
     4.4824   5.7695   5.7708   5.7812   5.7812   7.1675   7.1675   7.1687
     7.1889   7.9055   7.9257   7.9279   7.9279   7.9337   7.9427   7.9504
     7.9504   8.2027   8.2229   8.2239   8.2239   8.2248   8.2295   8.2295
     8.2658   8.6093   8.6165   8.6181   8.6181   8.6189   8.6366   8.6366

          k =-0.0244-0.0244-0.0244 ( 37056 PWs)   bands (ev):

   -18.1975 -18.1975 -18.1975 -18.1673 -18.1673  -5.3169  -5.1049  -5.1049
    -5.1049  -5.1030  -5.1026  -5.1026  -5.1026  -3.6155  -3.1919  -3.1919
    -3.1919  -3.1838  -3.1838  -3.1838  -3.1837  -3.1837  -3.1834  -3.1834
    -3.1834  -3.1833  -3.1830  -3.1830  -3.1830  -3.1828  -3.1828  -3.1828
    -3.1827  -3.1827  -3.1827  -3.1827  -3.1827  -0.5915  -0.3471  -0.3471
    -0.3471  -0.3349  -0.3349  -0.3349  -0.3344  -0.3343  -0.3343  -0.3343
    -0.3343  -0.3343  -0.3342  -0.3342  -0.3342  -0.3335  -0.3335  -0.3334
    -0.3334  -0.3334  -0.3319  -0.3319  -0.3319   2.0597   2.1102   2.1102
     2.1102   2.1132   2.1186   2.1186   2.1186   2.4670   2.4882   2.4882
     2.4882   2.5017   2.5017   2.5017   2.5021   2.5021   2.5021   2.5025
     2.5025   2.5025   2.5027   2.5027   2.5027   2.5027   2.5027   2.5028
     2.5078   2.5078   2.5078   2.5083   2.5083   3.8482   3.8482   3.8482
     3.8501   3.8501   3.8501   3.8540   3.8540   3.8540   3.8547   3.8548
     3.8548   3.8548   3.8552   3.8552   3.8552   3.8552   3.8552   3.8553
     3.8575   3.8575   3.8612   3.8612   3.8612   5.2996   5.2996   5.2996
     5.3007   5.3007   5.3007   5.3012   5.3012   5.3016   5.3016   5.3016
     5.3026   5.3026   5.3245   5.3245   5.3245   7.3964   7.4862   7.4862
     7.4862   7.4878   7.4890   7.4890   7.4890   7.4893   7.4893   7.4894
     7.4894   7.4894   7.4898   7.4898   7.4898   7.4904   7.4904   7.4904
     7.5324   7.5324   7.5324   7.5393   7.5393   7.9110   7.9784   7.9823

     the Fermi energy is     6.3143 ev

!    total energy              =    -819.77988259 Ry
     Harris-Foulkes estimate   =       0.00000000 Ry
     estimated scf accuracy    <          5.3E-12 Ry

     The total energy is the sum of the following terms:

     one-electron contribution =     -48.97842278 Ry
     hartree contribution      =     151.40437487 Ry
     xc contribution           =    -328.89323661 Ry
     ewald contribution        =    -593.31242748 Ry
     band sum                  =       5.06622362 Ry
     deband                    =     -54.04464640 Ry
     smearing contrib. (-TS)   =      -0.00017059 Ry

     convergence has been achieved in  14 iterations
--------------------------------------------------------------------------------------------------------------------------------------------
name                                                                 count      total        min        max    average    self (%)
--------------------------------------------------------------------------------------------------------------------------------------------
qe|electrons                                                      :      1   123.6372   123.6372   123.6372   123.6372       0.00
qe|electrons|init                                                 :      1     4.6805     4.6805     4.6805     4.6805       9.62
qe|electrons|scf                                                  :      1   118.9312   118.9312   118.9312   118.9312       1.89
qe|init_run|hinit0                                                :      1     2.8861     2.8861     2.8861     2.8861       0.00
qe|init_run|hinit0|struc_fact                                     :      1     2.8782     2.8782     2.8782     2.8782     100.00
qe|mix                                                            :     14     3.0870     0.0178     0.2557     0.2205     100.00
qe|run_pwscf                                                      :      1   128.8661   128.8661   128.8661   128.8661       0.25
qe|run_pwscf|electrons                                            :      1   123.6372   123.6372   123.6372   123.6372       0.00
qe|run_pwscf|init_run                                             :      1     3.6507     3.6507     3.6507     3.6507      20.95
qe|run_pwscf|setup                                                :      1     0.0108     0.0108     0.0108     0.0108     100.00
qe|run_pwscf|setup_sirius                                         :      1     1.2408     1.2408     1.2408     1.2408       0.26
qe|v_ha                                                           :     15     1.4071     0.0922     0.1128     0.0938     100.00
qe|v_xc                                                           :     15     0.4756     0.0313     0.0369     0.0317     100.00
qe|veff                                                           :     14     5.1500     0.3658     0.3699     0.3679      28.29
sddk::FFT3D::FFT3D                                                :      2     0.0292     0.0053     0.0239     0.0146     100.00
sddk::FFT3D::transform                                            :  13678    16.2798     0.0011     0.0165     0.0012       0.34
sddk::FFT3D::transform_xy                                         :  13678    14.2750     0.0010     0.0084     0.0010     100.00
sddk::FFT3D::transform_z                                          :  13678     1.9491     0.0001     0.0018     0.0001       1.38
sddk::FFT3D::transform_z_serial                                   :  13678     1.9222     0.0001     0.0018     0.0001     100.00
sddk::Gvec::find_gvec_shells                                      :      3     0.0738     0.0034     0.0566     0.0246     100.00
sddk::Gvec::init                                                  :      3     0.1204     0.0056     0.0910     0.0401      38.76
sddk::matrix_storage::matrix_storage                              :     89     0.3273     0.0000     0.0710     0.0037     100.00
sddk::remap_gvec_to_shells|init                                   :      1     0.0517     0.0517     0.0517     0.0517     100.00
sddk::wave_functions::inner                                       :    168     5.1947     0.0002     0.0936     0.0309     100.00
sddk::wave_functions::orthogonalize                               :     46     7.3282     0.0334     0.3903     0.1593      16.72
sddk::wave_functions::transform                                   :    110     9.6567     0.0094     0.2547     0.0878      91.54
sddk::wave_functions::transform|init                              :    110     0.8172     0.0000     0.0868     0.0074     100.00
sirius::Augmentation_operator::generate_pw_coeffs                 :      2     0.7339     0.3653     0.3686     0.3669     100.00
sirius::Band::apply_h_o                                           :     61    64.2147     0.3011     2.5576     1.0527       0.92
sirius::Band::diag_pseudo_potential                               :     14    81.4852     2.4828    11.8664     5.8204       0.01
sirius::Band::diag_pseudo_potential_davidson                      :     14    81.4600     2.4810    11.8646     5.8186       0.00
sirius::Band::diag_pseudo_potential_davidson|alloc                :     14     0.0662     0.0042     0.0106     0.0047      99.99
sirius::Band::diag_pseudo_potential_davidson|evp                  :     60     1.9133     0.0116     0.0586     0.0319     100.00
sirius::Band::diag_pseudo_potential_davidson|iter                 :     14    80.6417     2.4234    11.8069     5.7601       0.77
sirius::Band::diag_pseudo_potential_davidson|update_phi           :     14     1.7542     0.0650     0.1781     0.1253       0.01
sirius::Band::get_h_diag                                          :     14     0.3869     0.0273     0.0312     0.0276     100.00
sirius::Band::get_o_diag                                          :     14     0.3645     0.0259     0.0262     0.0260     100.00
sirius::Band::initialize_subspace                                 :      1     3.2546     3.2546     3.2546     3.2546       1.11
sirius::Band::initialize_subspace|kp                              :      1     3.2016     3.2016     3.2016     3.2016       2.08
sirius::Band::initialize_subspace|kp|wf                           :      1     0.0621     0.0621     0.0621     0.0621     100.00
sirius::Band::residuals                                           :     60     4.3635     0.0000     0.2269     0.0727       0.61
sirius::Band::residuals_aux                                       :     49     0.5656     0.0007     0.0314     0.0115     100.00
sirius::Band::set_subspace_mtrx                                   :     76     3.1503     0.0069     0.0939     0.0415       0.47
sirius::Band::solve_for_kset                                      :     14    94.8309     2.5241    14.2008     6.7736      13.87
sirius::Beta_projectors::Beta_projectors                          :      1     0.0117     0.0117     0.0117     0.0117       0.07
sirius::Beta_projectors::generate_pw_coefs_t                      :      1     0.0117     0.0117     0.0117     0.0117     100.00
sirius::Beta_projectors_base::generate                            :     75    21.4673     0.2613     0.5951     0.2862     100.00
sirius::Beta_projectors_base::inner                               :     75    11.9909     0.0136     0.3613     0.1599     100.00
sirius::DFT_ground_state::ewald_energy                            :      1     0.0394     0.0394     0.0394     0.0394     100.00
sirius::Density::add_k_point_contribution_dm                      :     14     7.1498     0.5049     0.5136     0.5107       0.51
sirius::Density::add_k_point_contribution_rg                      :     14     2.5802     0.1827     0.1858     0.1843       9.92
sirius::Density::augment                                          :     14     2.9190     0.2031     0.2123     0.2085       0.14
sirius::Density::generate_pseudo_core_charge_density              :      1     0.0820     0.0820     0.0820     0.0820       0.32
sirius::Density::generate_rho_aug                                 :     14     2.9147     0.2028     0.2120     0.2082      23.88
sirius::Density::generate_rho_aug|gemm                            :     28     1.0703     0.0278     0.0489     0.0382     100.00
sirius::Density::generate_rho_aug|phase_fac                       :     28     0.3403     0.0004     0.0241     0.0122     100.00
sirius::Density::generate_rho_aug|sum                             :     28     0.8081     0.0238     0.0317     0.0289     100.00
sirius::Density::generate_valence                                 :     14    12.8246     0.9081     0.9279     0.9160       0.80
sirius::Density::initial_density                                  :      1     0.1051     0.1051     0.1051     0.1051      16.42
sirius::K_point::initialize                                       :      1     0.0645     0.0645     0.0645     0.0645       5.55
sirius::Local_operator::apply_h                                   :     61    14.9983     0.0027     0.6671     0.2459      10.00
sirius::Local_operator::prepare                                   :     30     0.2318     0.0013     0.0173     0.0077      47.49
sirius::Non_local_operator::apply                                 :    122    22.2793     0.0114     0.4605     0.1826     100.00
sirius::Periodic_function::inner                                  :     42     0.0405     0.0007     0.0012     0.0010      63.29
sirius::Potential::Potential                                      :      1     0.2594     0.2594     0.2594     0.2594      18.11
sirius::Potential::generate_D_operator_matrix                     :     15     1.4581     0.0921     0.1566     0.0972     100.00
sirius::Potential::generate_local_potential                       :      1     0.2124     0.2124     0.2124     0.2124       0.19
sirius::Radial_integrals|aug                                      :      1     0.0711     0.0711     0.0711     0.0711     100.00
sirius::Radial_integrals|beta                                     :      2     0.1637     0.0790     0.0847     0.0819     100.00
sirius::Radial_integrals|rho_core_pseudo                          :      1     0.0197     0.0197     0.0197     0.0197     100.00
sirius::Radial_integrals|rho_pseudo                               :      1     0.0192     0.0192     0.0192     0.0192     100.00
sirius::Radial_integrals|vloc                                     :      1     0.1070     0.1070     0.1070     0.1070     100.00
sirius::Simulation_context::initialize                            :      1     1.1731     1.1731     1.1731     1.1731       0.00
sirius::Simulation_context_base::initialize                       :      1     0.4392     0.4392     0.4392     0.4392       0.47
sirius::Simulation_context_base::make_periodic_function           :      3     0.1306     0.0345     0.0615     0.0435     100.00
sirius::Smooth_periodic_function::fft_transform                   :     63     1.0083     0.0029     0.0435     0.0160      57.32
sirius::Smooth_periodic_function::gather_f_pw                     :     46     0.2513     0.0015     0.0111     0.0055     100.00
sirius_api::sirius_get_pw_coeffs                                  :     17     0.6200     0.0347     0.0415     0.0365      79.51
sirius_api::sirius_set_pw_coeffs                                  :     31     0.7437     0.0219     0.0319     0.0240      20.48
--------------------------------------------------------------------------------------------------------------------------------------------
+global_timer (  128.8668s, 0.00 % of self, 100.00 % of total)
|--qe|run_pwscf (  128.8661s, 100.00 %) 
qe|electrons (  123.6372s, 0.00 % of self, 95.94 % of total)
|--qe|electrons|scf (  118.9312s, 96.19 %) 
|--qe|electrons|init (    4.6805s, 3.79 %) 
|--sirius_api::sirius_set_pw_coeffs (    0.0221s, 0.02 %) 
qe|electrons|init (    4.6805s, 9.62 % of self, 3.63 % of total)
|--sirius::Band::initialize_subspace (    3.2546s, 69.54 %) 
|--sirius::Potential::Potential (    0.2594s, 5.54 %) 
|--sirius::Potential::generate_D_operator_matrix (    0.1566s, 3.35 %) 
|--sirius_api::sirius_get_pw_coeffs (    0.1201s, 2.57 %) 
|--qe|v_ha (    0.1128s, 2.41 %) 
|--sirius::Density::initial_density (    0.1051s, 2.25 %) 
|--sirius::Density::generate_pseudo_core_charge_density (    0.0820s, 1.75 %) 
|--sirius_api::sirius_set_pw_coeffs (    0.0631s, 1.35 %) 
|--sirius::DFT_ground_state::ewald_energy (    0.0394s, 0.84 %) 
|--qe|v_xc (    0.0369s, 0.79 %) 
|--sirius::Band::Band (    0.0000s, 0.00 %) 
qe|electrons|scf (  118.9312s, 1.89 % of self, 92.29 % of total)
|--sirius::Band::solve_for_kset (   94.8309s, 79.74 %) 
|--sirius::Density::generate_valence (   12.8246s, 10.78 %) 
|--qe|veff (    5.1500s, 4.33 %) 
|--qe|mix (    3.0870s, 2.60 %) 
|--sirius_api::sirius_get_pw_coeffs (    0.5000s, 0.42 %) 
|--sirius::Smooth_periodic_function::fft_transform (    0.2696s, 0.23 %) 
|--sirius::Periodic_function::inner (    0.0257s, 0.02 %) 
qe|init_run|hinit0 (    2.8861s, 0.00 % of self, 2.24 % of total)
|--qe|init_run|hinit0|struc_fact (    2.8782s, 99.73 %) 
|--qe|init_run|hinit0|init_us_1 (    0.0049s, 0.17 %) 
|--qe|init_run|hinit0|init_igk (    0.0030s, 0.10 %) 
|--qe|init_run|hinit0|init_vloc (    0.0000s, 0.00 %) 
|--qe|init_run|hinit0|setlocal (    0.0000s, 0.00 %) 
|--qe|init_run|hinit0|init_at_1 (    0.0000s, 0.00 %) 
|--qe|init_run|hinit0|set_rhoc (    0.0000s, 0.00 %) 
qe|run_pwscf (  128.8661s, 0.25 % of self, 100.00 % of total)
|--qe|run_pwscf|electrons (  123.6372s, 95.94 %) 
|--qe|run_pwscf|init_run (    3.6507s, 2.83 %) 
|--qe|run_pwscf|setup_sirius (    1.2408s, 0.96 %) 
|--qe|run_pwscf|setup (    0.0108s, 0.01 %) 
|--qe|run_pwscf|ions (    0.0000s, 0.00 %) 
|--qe|run_pwscf|punch (    0.0000s, 0.00 %) 
|--qe|run_pwscf|forces (    0.0000s, 0.00 %) 
|--qe|run_pwscf|stress (    0.0000s, 0.00 %) 
qe|run_pwscf|electrons (  123.6372s, 0.00 % of self, 95.94 % of total)
|--qe|electrons (  123.6372s, 100.00 %) 
qe|run_pwscf|init_run (    3.6507s, 20.95 % of self, 2.83 % of total)
|--qe|init_run|hinit0 (    2.8861s, 79.05 %) 
|--qe|init_run|potinit (    0.0000s, 0.00 %) 
|--qe|init_run|newd (    0.0000s, 0.00 %) 
qe|veff (    5.1500s, 28.29 % of self, 4.00 % of total)
|--sirius::Potential::generate_D_operator_matrix (    1.3014s, 25.27 %) 
|--qe|v_ha (    1.2943s, 25.13 %) 
|--sirius_api::sirius_set_pw_coeffs (    0.6584s, 12.78 %) 
|--qe|v_xc (    0.4387s, 8.52 %) 
sddk::FFT3D::transform (   16.2798s, 0.34 % of self, 12.63 % of total)
|--sddk::FFT3D::transform_xy (   14.2750s, 87.69 %) 
|--sddk::FFT3D::transform_z (    1.9491s, 11.97 %) 
sddk::FFT3D::transform_z (    1.9491s, 1.38 % of self, 1.51 % of total)
|--sddk::FFT3D::transform_z_serial (    1.9222s, 98.62 %) 
sddk::wave_functions::orthogonalize (    7.3282s, 16.72 % of self, 5.69 % of total)
|--sddk::wave_functions::transform (    4.0436s, 55.18 %) 
|--sddk::wave_functions::inner (    2.0591s, 28.10 %) 
sddk::wave_functions::transform (    9.6567s, 91.54 % of self, 7.49 % of total)
|--sddk::wave_functions::transform|init (    0.8172s, 8.46 %) 
sirius::Band::apply_h_o (   64.2147s, 0.92 % of self, 49.83 % of total)
|--sirius::Non_local_operator::apply (   22.2793s, 34.70 %) 
|--sirius::Beta_projectors_base::generate (   17.6078s, 27.42 %) 
|--sirius::Local_operator::apply_h (   14.9983s, 23.36 %) 
|--sirius::Beta_projectors_base::inner (    8.7368s, 13.61 %) 
sirius::Band::diag_pseudo_potential (   81.4852s, 0.01 % of self, 63.23 % of total)
|--sirius::Band::diag_pseudo_potential_davidson (   81.4600s, 99.97 %) 
|--sirius::Local_operator::prepare (    0.0197s, 0.02 %) 
|--sddk::FFT3D::prepare (    0.0009s, 0.00 %) 
|--sirius::Non_local_operator::Non_local_operator (    0.0000s, 0.00 %) 
sirius::Band::diag_pseudo_potential_davidson (   81.4600s, 0.00 % of self, 63.21 % of total)
|--sirius::Band::diag_pseudo_potential_davidson|iter (   80.6417s, 99.00 %) 
|--sirius::Band::get_h_diag (    0.3869s, 0.47 %) 
|--sirius::Band::get_o_diag (    0.3645s, 0.45 %) 
|--sirius::Band::diag_pseudo_potential_davidson|alloc (    0.0662s, 0.08 %) 
|--sirius::Band::diag_pseudo_potential_davidson|wf (    0.0002s, 0.00 %) 
|--sirius::Beta_projectors_base::dismiss (    0.0000s, 0.00 %) 
sirius::Band::diag_pseudo_potential_davidson|iter (   80.6417s, 0.77 % of self, 62.58 % of total)
|--sirius::Band::apply_h_o (   61.6571s, 76.46 %) 
|--sddk::wave_functions::orthogonalize (    7.3282s, 9.09 %) 
|--sirius::Band::residuals (    4.3635s, 5.41 %) 
|--sirius::Band::set_subspace_mtrx (    3.0078s, 3.73 %) 
|--sirius::Band::diag_pseudo_potential_davidson|evp (    1.9133s, 2.37 %) 
|--sirius::Band::diag_pseudo_potential_davidson|update_phi (    1.7542s, 2.18 %) 
sirius::Band::diag_pseudo_potential_davidson|update_phi (    1.7542s, 0.01 % of self, 1.36 % of total)
|--sddk::wave_functions::transform (    1.7541s, 99.99 %) 
sirius::Band::initialize_subspace (    3.2546s, 1.11 % of self, 2.53 % of total)
|--sirius::Band::initialize_subspace|kp (    3.2016s, 98.37 %) 
|--sirius::Local_operator::prepare (    0.0168s, 0.52 %) 
sirius::Band::initialize_subspace|kp (    3.2016s, 2.08 % of self, 2.48 % of total)
|--sirius::Band::apply_h_o (    2.5576s, 79.88 %) 
|--sddk::matrix_storage::matrix_storage (    0.2837s, 8.86 %) 
|--sirius::Band::set_subspace_mtrx (    0.1425s, 4.45 %) 
|--sddk::wave_functions::transform (    0.0877s, 2.74 %) 
|--sirius::Band::initialize_subspace|kp|wf (    0.0621s, 1.94 %) 
|--sirius::Local_operator::prepare (    0.0015s, 0.05 %) 
|--sddk::FFT3D::prepare (    0.0000s, 0.00 %) 
|--sirius::Non_local_operator::Non_local_operator (    0.0000s, 0.00 %) 
|--sirius::Beta_projectors_base::prepare (    0.0000s, 0.00 %) 
|--sirius::Beta_projectors_base::dismiss (    0.0000s, 0.00 %) 
sirius::Band::residuals (    4.3635s, 0.61 % of self, 3.39 % of total)
|--sddk::wave_functions::transform (    3.7714s, 86.43 %) 
|--sirius::Band::residuals_aux (    0.5656s, 12.96 %) 
sirius::Band::set_subspace_mtrx (    3.1503s, 0.47 % of self, 2.44 % of total)
|--sddk::wave_functions::inner (    3.1356s, 99.53 %) 
sirius::Band::solve_for_kset (   94.8309s, 13.87 % of self, 73.59 % of total)
|--sirius::Band::diag_pseudo_potential (   81.4852s, 85.93 %) 
|--sirius::Local_operator::prepare (    0.1938s, 0.20 %) 
|--sirius::K_point_set::sync_band_energies (    0.0003s, 0.00 %) 
sirius::Density::add_k_point_contribution_dm (    7.1498s, 0.51 % of self, 5.55 % of total)
|--sirius::Beta_projectors_base::generate (    3.8595s, 53.98 %) 
|--sirius::Beta_projectors_base::inner (    3.2541s, 45.51 %) 
|--sirius::Beta_projectors_base::dismiss (    0.0000s, 0.00 %) 
|--sirius::Beta_projectors_base::prepare (    0.0000s, 0.00 %) 
sirius::Density::add_k_point_contribution_rg (    2.5802s, 9.92 % of self, 2.00 % of total)
|--sddk::FFT3D::transform (    2.3241s, 90.08 %) 
|--sddk::FFT3D::prepare (    0.0002s, 0.01 %) 
sirius::Density::augment (    2.9190s, 0.14 % of self, 2.27 % of total)
|--sirius::Density::generate_rho_aug (    2.9147s, 99.86 %) 
sirius::Density::generate_rho_aug (    2.9147s, 23.88 % of self, 2.26 % of total)
|--sirius::Density::generate_rho_aug|gemm (    1.0703s, 36.72 %) 
|--sirius::Density::generate_rho_aug|sum (    0.8081s, 27.72 %) 
|--sirius::Density::generate_rho_aug|phase_fac (    0.3403s, 11.68 %) 
sirius::Density::generate_valence (   12.8246s, 0.80 % of self, 9.95 % of total)
|--sirius::Density::add_k_point_contribution_dm (    7.1498s, 55.75 %) 
|--sirius::Density::augment (    2.9190s, 22.76 %) 
|--sirius::Density::add_k_point_contribution_rg (    2.5802s, 20.12 %) 
|--sirius::Smooth_periodic_function::fft_transform (    0.0422s, 0.33 %) 
|--sirius::Smooth_periodic_function::gather_f_pw (    0.0308s, 0.24 %) 
|--sddk::FFT3D::prepare (    0.0003s, 0.00 %) 
|--sddk::matrix_storage::remap_forward (    0.0000s, 0.00 %) 
sirius::Local_operator::apply_h (   14.9983s, 10.00 % of self, 11.64 % of total)
|--sddk::FFT3D::transform (   13.4981s, 90.00 %) 
|--sddk::matrix_storage::remap_forward (    0.0002s, 0.00 %) 
|--sddk::matrix_storage::remap_backward (    0.0000s, 0.00 %) 

     init_run     :     26.27s CPU      3.65s WALL (       1 calls)

     Called by init_run:

     Called by electrons:
     v_of_rho     :      7.37s CPU      1.88s WALL (      15 calls)
     mix_rho      :      7.35s CPU      2.81s WALL (      14 calls)
     sym_rho      :      0.97s CPU      0.97s WALL (      14 calls)

     Called by c_bands:

     Called by sum_band:

     Called by *egterg:

     Called by h_psi:

     General routines
     fft          :     14.21s CPU      4.37s WALL (      88 calls)

     Parallel routines
     fft_scatter  :      4.28s CPU      3.12s WALL (      88 calls)

     PWSCF        : 12m27.64s CPU     2m 8.97s WALL


   This run was terminated on:  11:12: 3  25Sep2017            

=------------------------------------------------------------------------------=
   JOB DONE.
=------------------------------------------------------------------------------=
