
     Program PWSCF v.7.4 starts on 25Nov2024 at 10:44:36 

     This program is part of the open-source Quantum ESPRESSO suite
     for quantum simulation of materials; please cite
         "P. Giannozzi et al., J. Phys.:Condens. Matter 21 395502 (2009);
         "P. Giannozzi et al., J. Phys.:Condens. Matter 29 465901 (2017);
         "P. Giannozzi et al., J. Chem. Phys. 152 154105 (2020);
          URL http://www.quantum-espresso.org", 
     in publications or presentations arising from this work. More details at
     http://www.quantum-espresso.org/quote

     Parallel version (MPI & OpenMP), running on    1792 processor cores
     Number of MPI processes:               896
     Threads/MPI process:                     2

     MPI processes distributed on    14 nodes
     227860 MiB available memory on the printing compute node when the environment starts

     Reading input from pw.in

     Current dimensions of program PWSCF are:
     Max number of different atomic species (ntypx) = 10
     Max number of k-points (npk) =  40000
     Max angular momentum in pseudopotentials (lmaxx) =  4

     K-points division:     npool     =     112
     R & G space division:  proc/nbgrp/npool/nimage =       8
     Subspace diagonalization in iterative solution of the eigenvalue problem:
     one sub-group per band group will be used
     scalapack distributed-memory algorithm (size of sub-group:  2*  2 procs)


     Parallelization info
     --------------------
     sticks:   dense  smooth     PW     G-vecs:    dense   smooth      PW
     Min        2184     849    227               248295    60206    8423
     Max        2185     851    228               248296    60207    8425
     Sum       17473    6795   1823              1986367   481653   67393

     Using Slab Decomposition



     bravais-lattice index     =            0
     lattice parameter (alat)  =      28.4929  a.u.
     unit-cell volume          =   17221.4253 (a.u.)^3
     number of atoms/cell      =          144
     number of atomic types    =            2
     number of electrons       =      1152.00
     number of Kohn-Sham states=          691
     kinetic-energy cutoff     =      35.0000  Ry
     charge density cutoff     =     360.0000  Ry
     scf convergence threshold =      1.4E-06
     mixing beta               =       0.3500
     number of iterations used =            8  plain     mixing
     Exchange-correlation= SLA  PW   PBE  PBE
                           (   1   4   3   4   0   0   0)

     celldm(1)=  28.492913  celldm(2)=   0.000000  celldm(3)=   0.000000
     celldm(4)=   0.000000  celldm(5)=   0.000000  celldm(6)=   0.000000

     crystal axes: (cart. coord. in units of alat)
               a(1) = (   1.000000   0.000000   0.000000 )  
               a(2) = (  -0.000000   0.702408   0.266165 )  
               a(3) = (   0.000000   0.000000   1.059911 )  

     reciprocal axes: (cart. coord. in units 2 pi/alat)
               b(1) = (  1.000000  0.000000 -0.000000 )  
               b(2) = (  0.000000  1.423674  0.000000 )  
               b(3) = (  0.000000 -0.357513  0.943476 )  


     PseudoPot. # 1 for Si read from file:
     ./Si.pbe-n-rrkjus_psl.1.0.0.UPF
     MD5 check sum: d928fff27e2cf23ab01de9cd48acd62a
     Pseudo is Ultrasoft + core correction, Zval =  4.0
     Generated using "atomic" code by A. Dal Corso  v.5.1
     Using radial grid of 1141 points,  6 beta functions with: 
                l(1) =   0
                l(2) =   0
                l(3) =   1
                l(4) =   1
                l(5) =   2
                l(6) =   2
     Q(r) pseudized with 0 coefficients 


     PseudoPot. # 2 for Zr read from file:
     ./Zr_pbe_v1.uspp.F.UPF
     MD5 check sum: 5db81b1e868ab7776c4564c113de050b
     Pseudo is Ultrasoft + core correction, Zval = 12.0
     Generated by new atomic code, or converted to UPF format
     Using radial grid of  887 points,  6 beta functions with: 
                l(1) =   0
                l(2) =   0
                l(3) =   1
                l(4) =   1
                l(5) =   2
                l(6) =   2
     Q(r) pseudized with  6 coefficients,  rinner =    1.200   1.200   1.200
                                                       1.200   1.200

     atomic species   valence    mass     pseudopotential
     Si                4.00    28.08550     Si( 1.00)
     Zr               12.00    91.22400     Zr( 1.00)

     No symmetry found


                                    s                        frac. trans.

      isym =  1     identity                                     

 cryst.   s( 1) = (     1          0          0      )
                  (     0          1          0      )
                  (     0          0          1      )

 cart.    s( 1) = (  1.0000000  0.0000000  0.0000000 )
                  (  0.0000000  1.0000000  0.0000000 )
                  (  0.0000000  0.0000000  1.0000000 )


   Cartesian axes

     site n.     atom                  positions (alat units)
         1        Zr     tau(   1) = (   0.0600390   0.2026925   0.1823806  )
         2        Zr     tau(   2) = (   0.0583031   0.2024820   0.5294863  )
         3        Zr     tau(   3) = (   0.0645079   0.2047530   0.8867295  )
         4        Zr     tau(   4) = (   0.0674080   0.4354037   0.2688258  )
         5        Zr     tau(   5) = (   0.0622072   0.4343371   0.6257549  )
         6        Zr     tau(   6) = (   0.0610856   0.4302865   0.9769583  )
         7        Zr     tau(   7) = (   0.0610811   0.6658715   0.3514398  )
         8        Zr     tau(   8) = (   0.0600519   0.6687996   0.7138705  )
         9        Zr     tau(   9) = (   0.0677565   0.6680841   1.0631245  )
        10        Zr     tau(  10) = (   0.3113778   0.1952392   0.1767419  )
        11        Zr     tau(  11) = (   0.3087878   0.2037258   0.5329710  )
        12        Zr     tau(  12) = (   0.3102462   0.1953458   0.8847729  )
        13        Zr     tau(  13) = (   0.3126065   0.4390940   0.2649307  )
        14        Zr     tau(  14) = (   0.3133854   0.4380484   0.6168313  )
        15        Zr     tau(  15) = (   0.3116158   0.4291664   0.9726454  )
        16        Zr     tau(  16) = (   0.3111810   0.6638518   0.3535087  )
        17        Zr     tau(  17) = (   0.3173842   0.6678495   0.7071845  )
        18        Zr     tau(  18) = (   0.3149300   0.6701685   1.0581046  )
        19        Zr     tau(  19) = (   0.5600427   0.2043708   0.1804887  )
        20        Zr     tau(  20) = (   0.5587581   0.1969489   0.5337247  )
        21        Zr     tau(  21) = (   0.5621030   0.1973213   0.8895160  )
        22        Zr     tau(  22) = (   0.5596873   0.4387258   0.2678280  )
        23        Zr     tau(  23) = (   0.5674439   0.4345514   0.6223639  )
        24        Zr     tau(  24) = (   0.5618754   0.4293549   0.9756393  )
        25        Zr     tau(  25) = (   0.5615434   0.6706228   0.3511473  )
        26        Zr     tau(  26) = (   0.5670913   0.6662007   0.7077045  )
        27        Zr     tau(  27) = (   0.5673904   0.6680850   1.0645144  )
        28        Zr     tau(  28) = (   0.8116062   0.1949331   0.1779607  )
        29        Zr     tau(  29) = (   0.8134797   0.2046024   0.5290351  )
        30        Zr     tau(  30) = (   0.8097120   0.1974535   0.8814129  )
        31        Zr     tau(  31) = (   0.8151114   0.4367118   0.2710792  )
        32        Zr     tau(  32) = (   0.8175841   0.4329118   0.6211190  )
        33        Zr     tau(  33) = (   0.8173180   0.4324095   0.9725577  )
        34        Zr     tau(  34) = (   0.8140145   0.6635915   0.3542615  )
        35        Zr     tau(  35) = (   0.8090750   0.6653596   0.7065157  )
        36        Zr     tau(  36) = (   0.8084730   0.6710923   1.0603009  )
        37        Zr     tau(  37) = (   0.1918300   0.0309677   0.2630997  )
        38        Zr     tau(  38) = (   0.1831938   0.0340586   0.6137972  )
        39        Zr     tau(  39) = (   0.1858369   0.0289871   0.9696391  )
        40        Zr     tau(  40) = (   0.1906934   0.2645613   0.3545986  )
        41        Zr     tau(  41) = (   0.1882438   0.2726982   0.7082123  )
        42        Zr     tau(  42) = (   0.1842574   0.2715251   1.0564493  )
        43        Zr     tau(  43) = (   0.1920679   0.5034189   0.4434767  )
        44        Zr     tau(  44) = (   0.1916450   0.5021196   0.7976484  )
        45        Zr     tau(  45) = (   0.1853314   0.5001343   1.1432951  )
        46        Zr     tau(  46) = (   0.4350348   0.0309386   0.2600237  )
        47        Zr     tau(  47) = (   0.4353431   0.0382541   0.6145827  )
        48        Zr     tau(  48) = (   0.4377477   0.0321026   0.9751508  )
        49        Zr     tau(  49) = (   0.4343654   0.2690207   0.3565016  )
        50        Zr     tau(  50) = (   0.4427659   0.2683250   0.7049978  )
        51        Zr     tau(  51) = (   0.4333277   0.2707302   1.0569257  )
        52        Zr     tau(  52) = (   0.4401636   0.5041364   0.4452262  )
        53        Zr     tau(  53) = (   0.4417913   0.4992727   0.7952207  )
        54        Zr     tau(  54) = (   0.4385574   0.5028940   1.1424817  )
        55        Zr     tau(  55) = (   0.6828114   0.0361165   0.2648828  )
        56        Zr     tau(  56) = (   0.6878913   0.0392854   0.6169316  )
        57        Zr     tau(  57) = (   0.6915312   0.0308610   0.9716433  )
        58        Zr     tau(  58) = (   0.6846103   0.2724963   0.3514552  )
        59        Zr     tau(  59) = (   0.6831040   0.2697293   0.7081218  )
        60        Zr     tau(  60) = (   0.6869500   0.2715959   1.0549418  )
        61        Zr     tau(  61) = (   0.6854225   0.4975259   0.4422048  )
        62        Zr     tau(  62) = (   0.6865761   0.4978236   0.7915895  )
        63        Zr     tau(  63) = (   0.6879017   0.5013437   1.1528525  )
        64        Zr     tau(  64) = (   0.9359630   0.0356472   0.2683945  )
        65        Zr     tau(  65) = (   0.9387762   0.0338075   0.6220429  )
        66        Zr     tau(  66) = (   0.9420886   0.0327115   0.9725346  )
        67        Zr     tau(  67) = (   0.9359904   0.2712041   0.3482617  )
        68        Zr     tau(  68) = (   0.9331142   0.2653169   0.7066188  )
        69        Zr     tau(  69) = (   0.9327946   0.2660315   1.0601887  )
        70        Zr     tau(  70) = (   0.9382599   0.5075067   0.4407046  )
        71        Zr     tau(  71) = (   0.9337460   0.5050385   0.7918150  )
        72        Zr     tau(  72) = (   0.9404354   0.4997159   1.1512529  )
        73        Si     tau(  73) = (   0.1854727   0.0951727   0.0894206  )
        74        Si     tau(  74) = (   0.1852636   0.0972865   0.4415274  )
        75        Si     tau(  75) = (   0.1834795   0.0958489   0.8013862  )
        76        Si     tau(  76) = (   0.1853382   0.3305864   0.1858323  )
        77        Si     tau(  77) = (   0.1897976   0.3375327   0.5339212  )
        78        Si     tau(  78) = (   0.1849142   0.3355126   0.8919351  )
        79        Si     tau(  79) = (   0.1834036   0.5644577   0.2680228  )
        80        Si     tau(  80) = (   0.1905032   0.5648738   0.6274037  )
        81        Si     tau(  81) = (   0.1888088   0.5709479   0.9801378  )
        82        Si     tau(  82) = (   0.4368696   0.0944120   0.0897676  )
        83        Si     tau(  83) = (   0.4358541   0.0991754   0.4411030  )
        84        Si     tau(  84) = (   0.4390806   0.0952302   0.8031139  )
        85        Si     tau(  85) = (   0.4426835   0.3339531   0.1813312  )
        86        Si     tau(  86) = (   0.4322744   0.3319412   0.5346575  )
        87        Si     tau(  87) = (   0.4335915   0.3298456   0.8901263  )
        88        Si     tau(  88) = (   0.4419337   0.5666389   0.2731595  )
        89        Si     tau(  89) = (   0.4379664   0.5620426   0.6216735  )
        90        Si     tau(  90) = (   0.4330794   0.5657111   0.9742244  )
        91        Si     tau(  91) = (   0.6890057   0.0936691   0.0935478  )
        92        Si     tau(  92) = (   0.6828282   0.0979583   0.4485270  )
        93        Si     tau(  93) = (   0.6884286   0.0954663   0.7953296  )
        94        Si     tau(  94) = (   0.6870217   0.3359881   0.1772986  )
        95        Si     tau(  95) = (   0.6863310   0.3363693   0.5386326  )
        96        Si     tau(  96) = (   0.6870349   0.3289487   0.8917263  )
        97        Si     tau(  97) = (   0.6855109   0.5718237   0.2711017  )
        98        Si     tau(  98) = (   0.6839106   0.5673648   0.6274563  )
        99        Si     tau(  99) = (   0.6832820   0.5639112   0.9778536  )
       100        Si     tau( 100) = (   0.9329077   0.0960546   0.0926241  )
       101        Si     tau( 101) = (   0.9410352   0.1026450   0.4457677  )
       102        Si     tau( 102) = (   0.9371618   0.0953743   0.7953121  )
       103        Si     tau( 103) = (   0.9415713   0.3336106   0.1848572  )
       104        Si     tau( 104) = (   0.9427939   0.3324955   0.5347616  )
       105        Si     tau( 105) = (   0.9424163   0.3309423   0.8875353  )
       106        Si     tau( 106) = (   0.9415326   0.5696694   0.2681111  )
       107        Si     tau( 107) = (   0.9369621   0.5671012   0.6288453  )
       108        Si     tau( 108) = (   0.9408998   0.5709975   0.9762198  )
       109        Si     tau( 109) = (   0.0643516   0.1399995   0.3472402  )
       110        Si     tau( 110) = (   0.0671943   0.1378804   0.7028491  )
       111        Si     tau( 111) = (   0.0595634   0.1364256   1.0515049  )
       112        Si     tau( 112) = (   0.0601707   0.3667561   0.4417753  )
       113        Si     tau( 113) = (   0.0601717   0.3684171   0.7958556  )
       114        Si     tau( 114) = (   0.0638963   0.3729172   1.1484025  )
       115        Si     tau( 115) = (   0.0591624   0.5998048   0.5252993  )
       116        Si     tau( 116) = (   0.0593789   0.6049881   0.8840441  )
       117        Si     tau( 117) = (   0.0610169   0.6072647   1.2296114  )
       118        Si     tau( 118) = (   0.3139232   0.1353840   0.3543147  )
       119        Si     tau( 119) = (   0.3122205   0.1331835   0.7073051  )
       120        Si     tau( 120) = (   0.3119578   0.1333452   1.0606589  )
       121        Si     tau( 121) = (   0.3105962   0.3680858   0.4426509  )
       122        Si     tau( 122) = (   0.3168269   0.3717484   0.7890673  )
       123        Si     tau( 123) = (   0.3171072   0.3671991   1.1456800  )
       124        Si     tau( 124) = (   0.3174362   0.6055580   0.5260593  )
       125        Si     tau( 125) = (   0.3170246   0.6012318   0.8812042  )
       126        Si     tau( 126) = (   0.3158623   0.6065204   1.2362386  )
       127        Si     tau( 127) = (   0.5588614   0.1354941   0.3530647  )
       128        Si     tau( 128) = (   0.5619513   0.1390788   0.6986932  )
       129        Si     tau( 129) = (   0.5609879   0.1372023   1.0605781  )
       130        Si     tau( 130) = (   0.5611161   0.3659318   0.4415336  )
       131        Si     tau( 131) = (   0.5624009   0.3650572   0.7940219  )
       132        Si     tau( 132) = (   0.5665274   0.3704686   1.1478667  )
       133        Si     tau( 133) = (   0.5616936   0.5986345   0.5253014  )
       134        Si     tau( 134) = (   0.5612337   0.6044914   0.8850421  )
       135        Si     tau( 135) = (   0.5672288   0.6022856   1.2351983  )
       136        Si     tau( 136) = (   0.8113615   0.1304177   0.3478920  )
       137        Si     tau( 137) = (   0.8166657   0.1371594   0.7053021  )
       138        Si     tau( 138) = (   0.8100480   0.1308615   1.0546895  )
       139        Si     tau( 139) = (   0.8128208   0.3728441   0.4337645  )
       140        Si     tau( 140) = (   0.8095092   0.3666561   0.7945047  )
       141        Si     tau( 141) = (   0.8127213   0.3651186   1.1474154  )
       142        Si     tau( 142) = (   0.8127679   0.6003724   0.5225253  )
       143        Si     tau( 143) = (   0.8149392   0.6072367   0.8830673  )
       144        Si     tau( 144) = (   0.8094511   0.6071092   1.2305604  )

   Crystallographic axes

     site n.     atom                  positions (cryst. coord.)
         1        Zr     tau(   1) = (  0.0600390  0.2885682  0.0996065  )
         2        Zr     tau(   2) = (  0.0583031  0.2882685  0.4271675  )
         3        Zr     tau(   3) = (  0.0645079  0.2915016  0.7634059  )
         4        Zr     tau(   4) = (  0.0674080  0.6198730  0.0979681  )
         5        Zr     tau(   5) = (  0.0622072  0.6183546  0.4351034  )
         6        Zr     tau(   6) = (  0.0610856  0.6125879  0.7679034  )
         7        Zr     tau(   7) = (  0.0610811  0.9479843  0.0935171  )
         8        Zr     tau(   8) = (  0.0600519  0.9521529  0.4344149  )
         9        Zr     tau(   9) = (  0.0677565  0.9511343  0.7641833  )
        10        Zr     tau(  10) = (  0.3113778  0.2779571  0.0969511  )
        11        Zr     tau(  11) = (  0.3087878  0.2900392  0.4300106  )
        12        Zr     tau(  12) = (  0.3102462  0.2781088  0.7649231  )
        13        Zr     tau(  13) = (  0.3126065  0.6251269  0.0929738  )
        14        Zr     tau(  14) = (  0.3133854  0.6236382  0.4253573  )
        15        Zr     tau(  15) = (  0.3116158  0.6109932  0.7642347  )
        16        Zr     tau(  16) = (  0.3111810  0.9451089  0.0961911  )
        17        Zr     tau(  17) = (  0.3173842  0.9508003  0.4284465  )
        18        Zr     tau(  18) = (  0.3149300  0.9541018  0.7587021  )
        19        Zr     tau(  19) = (  0.5600427  0.2909575  0.0972214  )
        20        Zr     tau(  20) = (  0.5587581  0.2803911  0.4331445  )
        21        Zr     tau(  21) = (  0.5621030  0.2809213  0.7686918  )
        22        Zr     tau(  22) = (  0.5596873  0.6246028  0.0958389  )
        23        Zr     tau(  23) = (  0.5674439  0.6186597  0.4318275  )
        24        Zr     tau(  24) = (  0.5618754  0.6112616  0.7669920  )
        25        Zr     tau(  25) = (  0.5615434  0.9547485  0.0915426  )
        26        Zr     tau(  26) = (  0.5670913  0.9484529  0.4295266  )
        27        Zr     tau(  27) = (  0.5673904  0.9511355  0.7654944  )
        28        Zr     tau(  28) = (  0.8116062  0.2775212  0.0982105  )
        29        Zr     tau(  29) = (  0.8134797  0.2912872  0.4259838  )
        30        Zr     tau(  30) = (  0.8097120  0.2811095  0.7609995  )
        31        Zr     tau(  31) = (  0.8151114  0.6217354  0.0996264  )
        32        Zr     tau(  32) = (  0.8175841  0.6163255  0.4312391  )
        33        Zr     tau(  33) = (  0.8173180  0.6156104  0.7629925  )
        34        Zr     tau(  34) = (  0.8140145  0.9447382  0.0969944  )
        35        Zr     tau(  35) = (  0.8090750  0.9472554  0.4287056  )
        36        Zr     tau(  36) = (  0.8084730  0.9554169  0.7604439  )
        37        Zr     tau(  37) = (  0.1918300  0.0440880  0.2371568  )
        38        Zr     tau(  38) = (  0.1831938  0.0484883  0.5669264  )
        39        Zr     tau(  39) = (  0.1858369  0.0412681  0.9044678  )
        40        Zr     tau(  40) = (  0.1906934  0.3766492  0.2399711  )
        41        Zr     tau(  41) = (  0.1882438  0.3882334  0.5706880  )
        42        Zr     tau(  42) = (  0.1842574  0.3865633  0.8996605  )
        43        Zr     tau(  43) = (  0.1920679  0.7167046  0.2384307  )
        44        Zr     tau(  44) = (  0.1916450  0.7148548  0.5730476  )
        45        Zr     tau(  45) = (  0.1853314  0.7120284  0.8998667  )
        46        Zr     tau(  46) = (  0.4350348  0.0440465  0.2342652  )
        47        Zr     tau(  47) = (  0.4353431  0.0544614  0.5661676  )
        48        Zr     tau(  48) = (  0.4377477  0.0457036  0.9085541  )
        49        Zr     tau(  49) = (  0.4343654  0.3829979  0.2401722  )
        50        Zr     tau(  50) = (  0.4427659  0.3820074  0.5692187  )
        51        Zr     tau(  51) = (  0.4333277  0.3854317  0.9003942  )
        52        Zr     tau(  52) = (  0.4401636  0.7177261  0.2398248  )
        53        Zr     tau(  53) = (  0.4417913  0.7108018  0.5717749  )
        54        Zr     tau(  54) = (  0.4385574  0.7159573  0.8981126  )
        55        Zr     tau(  55) = (  0.6828114  0.0514181  0.2369984  )
        56        Zr     tau(  56) = (  0.6878913  0.0559297  0.5680150  )
        57        Zr     tau(  57) = (  0.6915312  0.0439360  0.9056887  )
        58        Zr     tau(  58) = (  0.6846103  0.3879460  0.2341685  )
        59        Zr     tau(  59) = (  0.6831040  0.3840067  0.5716640  )
        60        Zr     tau(  60) = (  0.6869500  0.3866642  0.8982129  )
        61        Zr     tau(  61) = (  0.6854225  0.7083149  0.2393375  )
        62        Zr     tau(  62) = (  0.6865761  0.7087387  0.5688670  )
        63        Zr     tau(  63) = (  0.6879017  0.7137502  0.9084515  )
        64        Zr     tau(  64) = (  0.9359630  0.0507500  0.2404794  )
        65        Zr     tau(  65) = (  0.9387762  0.0481308  0.5747958  )
        66        Zr     tau(  66) = (  0.9420886  0.0465705  0.9058681  )
        67        Zr     tau(  67) = (  0.9359904  0.3861063  0.2316175  )
        68        Zr     tau(  68) = (  0.9331142  0.3777248  0.5718234  )
        69        Zr     tau(  69) = (  0.9327946  0.3787422  0.9051527  )
        70        Zr     tau(  70) = (  0.9382599  0.7225243  0.2343538  )
        71        Zr     tau(  71) = (  0.9337460  0.7190103  0.5665004  )
        72        Zr     tau(  72) = (  0.9404354  0.7114327  0.9075243  )
        73        Si     tau(  73) = (  0.1854727  0.1354949  0.0503407  )
        74        Si     tau(  74) = (  0.1852636  0.1385043  0.3817892  )
        75        Si     tau(  75) = (  0.1834795  0.1364576  0.7218212  )
        76        Si     tau(  76) = (  0.1853382  0.4706474  0.0571393  )
        77        Si     tau(  77) = (  0.1897976  0.4805367  0.3830694  )
        78        Si     tau(  78) = (  0.1849142  0.4776607  0.7215690  )
        79        Si     tau(  79) = (  0.1834036  0.8036039  0.0510720  )
        80        Si     tau(  80) = (  0.1905032  0.8041964  0.3899904  )
        81        Si     tau(  81) = (  0.1888088  0.8128439  0.7206149  )
        82        Si     tau(  82) = (  0.4368696  0.1344119  0.0509400  )
        83        Si     tau(  83) = (  0.4358541  0.1411934  0.3807135  )
        84        Si     tau(  84) = (  0.4390806  0.1355768  0.7236725  )
        85        Si     tau(  85) = (  0.4426835  0.4754405  0.0516890  )
        86        Si     tau(  86) = (  0.4322744  0.4725762  0.3857631  )
        87        Si     tau(  87) = (  0.4335915  0.4695927  0.7218885  )
        88        Si     tau(  88) = (  0.4419337  0.8067093  0.0551385  )
        89        Si     tau(  89) = (  0.4379664  0.8001656  0.3855963  )
        90        Si     tau(  90) = (  0.4330794  0.8053885  0.7169080  )
        91        Si     tau(  91) = (  0.6890057  0.1333543  0.0547721  )
        92        Si     tau(  92) = (  0.6828282  0.1394607  0.3881530  )
        93        Si     tau(  93) = (  0.6884286  0.1359129  0.7162438  )
        94        Si     tau(  94) = (  0.6870217  0.4783376  0.0471567  )
        95        Si     tau(  95) = (  0.6863310  0.4788804  0.3879304  )
        96        Si     tau(  96) = (  0.6870349  0.4683158  0.7237187  )
        97        Si     tau(  97) = (  0.6855109  0.8140907  0.0513434  )
        98        Si     tau(  98) = (  0.6839106  0.8077428  0.3891495  )
        99        Si     tau(  99) = (  0.6832820  0.8028260  0.7209756  )
       100        Si     tau( 100) = (  0.9329077  0.1367505  0.0530478  )
       101        Si     tau( 101) = (  0.9410352  0.1461331  0.3838741  )
       102        Si     tau( 102) = (  0.9371618  0.1357819  0.7162602  )
       103        Si     tau( 103) = (  0.9415713  0.4749528  0.0551381  )
       104        Si     tau( 104) = (  0.9427939  0.4733654  0.3856631  )
       105        Si     tau( 105) = (  0.9424163  0.4711541  0.7190518  )
       106        Si     tau( 106) = (  0.9415326  0.8110237  0.0492920  )
       107        Si     tau( 107) = (  0.9369621  0.8073674  0.3905542  )
       108        Si     tau( 108) = (  0.9408998  0.8129145  0.7169007  )
       109        Si     tau( 109) = (  0.0643516  0.1993136  0.2775611  )
       110        Si     tau( 110) = (  0.0671943  0.1962969  0.6138271  )
       111        Si     tau( 111) = (  0.0595634  0.1942256  0.9432955  )
       112        Si     tau( 112) = (  0.0601707  0.5221412  0.2856842  )
       113        Si     tau( 113) = (  0.0601717  0.5245060  0.6191565  )
       114        Si     tau( 114) = (  0.0638963  0.5309127  0.9501671  )
       115        Si     tau( 115) = (  0.0591624  0.8539267  0.2811691  )
       116        Si     tau( 116) = (  0.0593789  0.8613061  0.6177830  )
       117        Si     tau( 117) = (  0.0610169  0.8645473  0.9430035  )
       118        Si     tau( 118) = (  0.3139232  0.1927428  0.2858858  )
       119        Si     tau( 119) = (  0.3122205  0.1896099  0.6197104  )
       120        Si     tau( 120) = (  0.3119578  0.1898401  0.9530334  )
       121        Si     tau( 121) = (  0.3105962  0.5240344  0.2860349  )
       122        Si     tau( 122) = (  0.3168269  0.5292487  0.6115609  )
       123        Si     tau( 123) = (  0.3171072  0.5227719  0.9496428  )
       124        Si     tau( 124) = (  0.3174362  0.8621174  0.2798293  )
       125        Si     tau( 125) = (  0.3170246  0.8559584  0.6164466  )
       126        Si     tau( 126) = (  0.3158623  0.8634876  0.9495222  )
       127        Si     tau( 127) = (  0.5588614  0.1928995  0.2846671  )
       128        Si     tau( 128) = (  0.5619513  0.1980029  0.6094776  )
       129        Si     tau( 129) = (  0.5609879  0.1953314  0.9515781  )
       130        Si     tau( 130) = (  0.5611161  0.5209678  0.2857508  )
       131        Si     tau( 131) = (  0.5624009  0.5197226  0.6186277  )
       132        Si     tau( 132) = (  0.5665274  0.5274267  0.9505371  )
       133        Si     tau( 133) = (  0.5616936  0.8522606  0.2815894  )
       134        Si     tau( 134) = (  0.5612337  0.8605990  0.6189022  )
       135        Si     tau( 135) = (  0.5672288  0.8574585  0.9500547  )
       136        Si     tau( 136) = (  0.8113615  0.1856724  0.2816017  )
       137        Si     tau( 137) = (  0.8166657  0.1952703  0.6163992  )
       138        Si     tau( 138) = (  0.8100480  0.1863042  0.9482893  )
       139        Si     tau( 139) = (  0.8128208  0.5308086  0.2759497  )
       140        Si     tau( 140) = (  0.8095092  0.5219989  0.6185116  )
       141        Si     tau( 141) = (  0.8127213  0.5198099  0.9520239  )
       142        Si     tau( 142) = (  0.8127679  0.8547348  0.2783490  )
       143        Si     tau( 143) = (  0.8149392  0.8645074  0.6160575  )
       144        Si     tau( 144) = (  0.8094511  0.8643258  0.9439544  )

     number of k points=   112  Marzari-Vanderbilt smearing, width (Ry)=  0.0200
                       cart. coord. in units 2pi/alat
        k(    1) = (   0.0000000   0.0000000   0.0000000), wk =   0.0092593
        k(    2) = (   0.0000000  -0.0595855   0.1572460), wk =   0.0185185
        k(    3) = (   0.0000000  -0.1191710   0.3144919), wk =   0.0185185
        k(    4) = (   0.0000000   0.1787566  -0.4717379), wk =   0.0092593
        k(    5) = (   0.0000000   0.2372791   0.0000000), wk =   0.0185185
        k(    6) = (   0.0000000   0.1776935   0.1572460), wk =   0.0185185
        k(    7) = (   0.0000000   0.1181080   0.3144919), wk =   0.0185185
        k(    8) = (   0.0000000   0.4160356  -0.4717379), wk =   0.0185185
        k(    9) = (   0.0000000   0.3564501  -0.3144919), wk =   0.0185185
        k(   10) = (   0.0000000   0.2968646  -0.1572460), wk =   0.0185185
        k(   11) = (   0.0000000   0.4745581   0.0000000), wk =   0.0185185
        k(   12) = (   0.0000000   0.4149726   0.1572460), wk =   0.0185185
        k(   13) = (   0.0000000   0.3553871   0.3144919), wk =   0.0185185
        k(   14) = (   0.0000000   0.6533147  -0.4717379), wk =   0.0185185
        k(   15) = (   0.0000000   0.5937292  -0.3144919), wk =   0.0185185
        k(   16) = (   0.0000000   0.5341437  -0.1572460), wk =   0.0185185
        k(   17) = (   0.0000000  -0.7118372   0.0000000), wk =   0.0092593
        k(   18) = (   0.0000000  -0.7714227   0.1572460), wk =   0.0185185
        k(   19) = (   0.0000000  -0.8310083   0.3144919), wk =   0.0185185
        k(   20) = (   0.0000000  -0.5330806  -0.4717379), wk =   0.0092593
        k(   21) = (   0.1666667   0.0000000   0.0000000), wk =   0.0185185
        k(   22) = (   0.1666667  -0.0595855   0.1572460), wk =   0.0185185
        k(   23) = (   0.1666667  -0.1191710   0.3144919), wk =   0.0185185
        k(   24) = (   0.1666667   0.1787566  -0.4717379), wk =   0.0185185
        k(   25) = (   0.1666667   0.2372791   0.0000000), wk =   0.0185185
        k(   26) = (   0.1666667   0.1776935   0.1572460), wk =   0.0185185
        k(   27) = (   0.1666667   0.1181080   0.3144919), wk =   0.0185185
        k(   28) = (   0.1666667   0.4160356  -0.4717379), wk =   0.0185185
        k(   29) = (   0.1666667   0.3564501  -0.3144919), wk =   0.0185185
        k(   30) = (   0.1666667   0.2968646  -0.1572460), wk =   0.0185185
        k(   31) = (   0.1666667   0.4745581   0.0000000), wk =   0.0185185
        k(   32) = (   0.1666667   0.4149726   0.1572460), wk =   0.0185185
        k(   33) = (   0.1666667   0.3553871   0.3144919), wk =   0.0185185
        k(   34) = (   0.1666667   0.6533147  -0.4717379), wk =   0.0185185
        k(   35) = (   0.1666667   0.5937292  -0.3144919), wk =   0.0185185
        k(   36) = (   0.1666667   0.5341437  -0.1572460), wk =   0.0185185
        k(   37) = (   0.1666667  -0.7118372   0.0000000), wk =   0.0185185
        k(   38) = (   0.1666667  -0.7714227   0.1572460), wk =   0.0185185
        k(   39) = (   0.1666667  -0.8310083   0.3144919), wk =   0.0185185
        k(   40) = (   0.1666667  -0.5330806  -0.4717379), wk =   0.0185185
        k(   41) = (   0.3333333   0.0000000   0.0000000), wk =   0.0185185
        k(   42) = (   0.3333333  -0.0595855   0.1572460), wk =   0.0185185
        k(   43) = (   0.3333333  -0.1191710   0.3144919), wk =   0.0185185
        k(   44) = (   0.3333333   0.1787566  -0.4717379), wk =   0.0185185
        k(   45) = (   0.3333333   0.2372791   0.0000000), wk =   0.0185185
        k(   46) = (   0.3333333   0.1776935   0.1572460), wk =   0.0185185
        k(   47) = (   0.3333333   0.1181080   0.3144919), wk =   0.0185185
        k(   48) = (   0.3333333   0.4160356  -0.4717379), wk =   0.0185185
        k(   49) = (   0.3333333   0.3564501  -0.3144919), wk =   0.0185185
        k(   50) = (   0.3333333   0.2968646  -0.1572460), wk =   0.0185185
        k(   51) = (   0.3333333   0.4745581   0.0000000), wk =   0.0185185
        k(   52) = (   0.3333333   0.4149726   0.1572460), wk =   0.0185185
        k(   53) = (   0.3333333   0.3553871   0.3144919), wk =   0.0185185
        k(   54) = (   0.3333333   0.6533147  -0.4717379), wk =   0.0185185
        k(   55) = (   0.3333333   0.5937292  -0.3144919), wk =   0.0185185
        k(   56) = (   0.3333333   0.5341437  -0.1572460), wk =   0.0185185
        k(   57) = (   0.3333333  -0.7118372   0.0000000), wk =   0.0185185
        k(   58) = (   0.3333333  -0.7714227   0.1572460), wk =   0.0185185
        k(   59) = (   0.3333333  -0.8310083   0.3144919), wk =   0.0185185
        k(   60) = (   0.3333333  -0.5330806  -0.4717379), wk =   0.0185185
        k(   61) = (  -0.5000000   0.0000000   0.0000000), wk =   0.0092593
        k(   62) = (  -0.5000000  -0.0595855   0.1572460), wk =   0.0185185
        k(   63) = (  -0.5000000  -0.1191710   0.3144919), wk =   0.0185185
        k(   64) = (  -0.5000000   0.1787566  -0.4717379), wk =   0.0092593
        k(   65) = (  -0.5000000   0.2372791   0.0000000), wk =   0.0185185
        k(   66) = (  -0.5000000   0.1776935   0.1572460), wk =   0.0185185
        k(   67) = (  -0.5000000   0.1181080   0.3144919), wk =   0.0185185
        k(   68) = (  -0.5000000   0.4160356  -0.4717379), wk =   0.0185185
        k(   69) = (  -0.5000000   0.3564501  -0.3144919), wk =   0.0185185
        k(   70) = (  -0.5000000   0.2968646  -0.1572460), wk =   0.0185185
        k(   71) = (  -0.5000000   0.4745581   0.0000000), wk =   0.0185185
        k(   72) = (  -0.5000000   0.4149726   0.1572460), wk =   0.0185185
        k(   73) = (  -0.5000000   0.3553871   0.3144919), wk =   0.0185185
        k(   74) = (  -0.5000000   0.6533147  -0.4717379), wk =   0.0185185
        k(   75) = (  -0.5000000   0.5937292  -0.3144919), wk =   0.0185185
        k(   76) = (  -0.5000000   0.5341437  -0.1572460), wk =   0.0185185
        k(   77) = (  -0.5000000  -0.7118372   0.0000000), wk =   0.0092593
        k(   78) = (  -0.5000000  -0.7714227   0.1572460), wk =   0.0185185
        k(   79) = (  -0.5000000  -0.8310083   0.3144919), wk =   0.0185185
        k(   80) = (  -0.5000000  -0.5330806  -0.4717379), wk =   0.0092593
        k(   81) = (   0.1666667   0.0595855  -0.1572460), wk =   0.0185185
        k(   82) = (   0.1666667   0.1191710  -0.3144919), wk =   0.0185185
        k(   83) = (   0.1666667  -0.2372791   0.0000000), wk =   0.0185185
        k(   84) = (   0.1666667  -0.1776935  -0.1572460), wk =   0.0185185
        k(   85) = (   0.1666667  -0.1181080  -0.3144919), wk =   0.0185185
        k(   86) = (   0.1666667  -0.4160356   0.4717379), wk =   0.0185185
        k(   87) = (   0.1666667  -0.3564501   0.3144919), wk =   0.0185185
        k(   88) = (   0.1666667  -0.2968646   0.1572460), wk =   0.0185185
        k(   89) = (   0.1666667  -0.4745581   0.0000000), wk =   0.0185185
        k(   90) = (   0.1666667  -0.4149726  -0.1572460), wk =   0.0185185
        k(   91) = (   0.1666667  -0.3553871  -0.3144919), wk =   0.0185185
        k(   92) = (   0.1666667  -0.6533147   0.4717379), wk =   0.0185185
        k(   93) = (   0.1666667  -0.5937292   0.3144919), wk =   0.0185185
        k(   94) = (   0.1666667  -0.5341437   0.1572460), wk =   0.0185185
        k(   95) = (   0.1666667   0.7714227  -0.1572460), wk =   0.0185185
        k(   96) = (   0.1666667   0.8310083  -0.3144919), wk =   0.0185185
        k(   97) = (   0.3333333   0.0595855  -0.1572460), wk =   0.0185185
        k(   98) = (   0.3333333   0.1191710  -0.3144919), wk =   0.0185185
        k(   99) = (   0.3333333  -0.2372791   0.0000000), wk =   0.0185185
        k(  100) = (   0.3333333  -0.1776935  -0.1572460), wk =   0.0185185
        k(  101) = (   0.3333333  -0.1181080  -0.3144919), wk =   0.0185185
        k(  102) = (   0.3333333  -0.4160356   0.4717379), wk =   0.0185185
        k(  103) = (   0.3333333  -0.3564501   0.3144919), wk =   0.0185185
        k(  104) = (   0.3333333  -0.2968646   0.1572460), wk =   0.0185185
        k(  105) = (   0.3333333  -0.4745581   0.0000000), wk =   0.0185185
        k(  106) = (   0.3333333  -0.4149726  -0.1572460), wk =   0.0185185
        k(  107) = (   0.3333333  -0.3553871  -0.3144919), wk =   0.0185185
        k(  108) = (   0.3333333  -0.6533147   0.4717379), wk =   0.0185185
        k(  109) = (   0.3333333  -0.5937292   0.3144919), wk =   0.0185185
        k(  110) = (   0.3333333  -0.5341437   0.1572460), wk =   0.0185185
        k(  111) = (   0.3333333   0.7714227  -0.1572460), wk =   0.0185185
        k(  112) = (   0.3333333   0.8310083  -0.3144919), wk =   0.0185185

                       cryst. coord.
        k(    1) = (   0.0000000   0.0000000   0.0000000), wk =   0.0092593
        k(    2) = (   0.0000000   0.0000000   0.1666667), wk =   0.0185185
        k(    3) = (   0.0000000   0.0000000   0.3333333), wk =   0.0185185
        k(    4) = (   0.0000000   0.0000000  -0.5000000), wk =   0.0092593
        k(    5) = (   0.0000000   0.1666667   0.0000000), wk =   0.0185185
        k(    6) = (   0.0000000   0.1666667   0.1666667), wk =   0.0185185
        k(    7) = (   0.0000000   0.1666667   0.3333333), wk =   0.0185185
        k(    8) = (   0.0000000   0.1666667  -0.5000000), wk =   0.0185185
        k(    9) = (   0.0000000   0.1666667  -0.3333333), wk =   0.0185185
        k(   10) = (   0.0000000   0.1666667  -0.1666667), wk =   0.0185185
        k(   11) = (   0.0000000   0.3333333   0.0000000), wk =   0.0185185
        k(   12) = (   0.0000000   0.3333333   0.1666667), wk =   0.0185185
        k(   13) = (   0.0000000   0.3333333   0.3333333), wk =   0.0185185
        k(   14) = (   0.0000000   0.3333333  -0.5000000), wk =   0.0185185
        k(   15) = (   0.0000000   0.3333333  -0.3333333), wk =   0.0185185
        k(   16) = (   0.0000000   0.3333333  -0.1666667), wk =   0.0185185
        k(   17) = (   0.0000000  -0.5000000   0.0000000), wk =   0.0092593
        k(   18) = (   0.0000000  -0.5000000   0.1666667), wk =   0.0185185
        k(   19) = (   0.0000000  -0.5000000   0.3333333), wk =   0.0185185
        k(   20) = (   0.0000000  -0.5000000  -0.5000000), wk =   0.0092593
        k(   21) = (   0.1666667   0.0000000   0.0000000), wk =   0.0185185
        k(   22) = (   0.1666667   0.0000000   0.1666667), wk =   0.0185185
        k(   23) = (   0.1666667   0.0000000   0.3333333), wk =   0.0185185
        k(   24) = (   0.1666667   0.0000000  -0.5000000), wk =   0.0185185
        k(   25) = (   0.1666667   0.1666667   0.0000000), wk =   0.0185185
        k(   26) = (   0.1666667   0.1666667   0.1666667), wk =   0.0185185
        k(   27) = (   0.1666667   0.1666667   0.3333333), wk =   0.0185185
        k(   28) = (   0.1666667   0.1666667  -0.5000000), wk =   0.0185185
        k(   29) = (   0.1666667   0.1666667  -0.3333333), wk =   0.0185185
        k(   30) = (   0.1666667   0.1666667  -0.1666667), wk =   0.0185185
        k(   31) = (   0.1666667   0.3333333   0.0000000), wk =   0.0185185
        k(   32) = (   0.1666667   0.3333333   0.1666667), wk =   0.0185185
        k(   33) = (   0.1666667   0.3333333   0.3333333), wk =   0.0185185
        k(   34) = (   0.1666667   0.3333333  -0.5000000), wk =   0.0185185
        k(   35) = (   0.1666667   0.3333333  -0.3333333), wk =   0.0185185
        k(   36) = (   0.1666667   0.3333333  -0.1666667), wk =   0.0185185
        k(   37) = (   0.1666667  -0.5000000   0.0000000), wk =   0.0185185
        k(   38) = (   0.1666667  -0.5000000   0.1666667), wk =   0.0185185
        k(   39) = (   0.1666667  -0.5000000   0.3333333), wk =   0.0185185
        k(   40) = (   0.1666667  -0.5000000  -0.5000000), wk =   0.0185185
        k(   41) = (   0.3333333   0.0000000   0.0000000), wk =   0.0185185
        k(   42) = (   0.3333333   0.0000000   0.1666667), wk =   0.0185185
        k(   43) = (   0.3333333   0.0000000   0.3333333), wk =   0.0185185
        k(   44) = (   0.3333333   0.0000000  -0.5000000), wk =   0.0185185
        k(   45) = (   0.3333333   0.1666667   0.0000000), wk =   0.0185185
        k(   46) = (   0.3333333   0.1666667   0.1666667), wk =   0.0185185
        k(   47) = (   0.3333333   0.1666667   0.3333333), wk =   0.0185185
        k(   48) = (   0.3333333   0.1666667  -0.5000000), wk =   0.0185185
        k(   49) = (   0.3333333   0.1666667  -0.3333333), wk =   0.0185185
        k(   50) = (   0.3333333   0.1666667  -0.1666667), wk =   0.0185185
        k(   51) = (   0.3333333   0.3333333   0.0000000), wk =   0.0185185
        k(   52) = (   0.3333333   0.3333333   0.1666667), wk =   0.0185185
        k(   53) = (   0.3333333   0.3333333   0.3333333), wk =   0.0185185
        k(   54) = (   0.3333333   0.3333333  -0.5000000), wk =   0.0185185
        k(   55) = (   0.3333333   0.3333333  -0.3333333), wk =   0.0185185
        k(   56) = (   0.3333333   0.3333333  -0.1666667), wk =   0.0185185
        k(   57) = (   0.3333333  -0.5000000   0.0000000), wk =   0.0185185
        k(   58) = (   0.3333333  -0.5000000   0.1666667), wk =   0.0185185
        k(   59) = (   0.3333333  -0.5000000   0.3333333), wk =   0.0185185
        k(   60) = (   0.3333333  -0.5000000  -0.5000000), wk =   0.0185185
        k(   61) = (  -0.5000000   0.0000000   0.0000000), wk =   0.0092593
        k(   62) = (  -0.5000000   0.0000000   0.1666667), wk =   0.0185185
        k(   63) = (  -0.5000000   0.0000000   0.3333333), wk =   0.0185185
        k(   64) = (  -0.5000000   0.0000000  -0.5000000), wk =   0.0092593
        k(   65) = (  -0.5000000   0.1666667   0.0000000), wk =   0.0185185
        k(   66) = (  -0.5000000   0.1666667   0.1666667), wk =   0.0185185
        k(   67) = (  -0.5000000   0.1666667   0.3333333), wk =   0.0185185
        k(   68) = (  -0.5000000   0.1666667  -0.5000000), wk =   0.0185185
        k(   69) = (  -0.5000000   0.1666667  -0.3333333), wk =   0.0185185
        k(   70) = (  -0.5000000   0.1666667  -0.1666667), wk =   0.0185185
        k(   71) = (  -0.5000000   0.3333333   0.0000000), wk =   0.0185185
        k(   72) = (  -0.5000000   0.3333333   0.1666667), wk =   0.0185185
        k(   73) = (  -0.5000000   0.3333333   0.3333333), wk =   0.0185185
        k(   74) = (  -0.5000000   0.3333333  -0.5000000), wk =   0.0185185
        k(   75) = (  -0.5000000   0.3333333  -0.3333333), wk =   0.0185185
        k(   76) = (  -0.5000000   0.3333333  -0.1666667), wk =   0.0185185
        k(   77) = (  -0.5000000  -0.5000000   0.0000000), wk =   0.0092593
        k(   78) = (  -0.5000000  -0.5000000   0.1666667), wk =   0.0185185
        k(   79) = (  -0.5000000  -0.5000000   0.3333333), wk =   0.0185185
        k(   80) = (  -0.5000000  -0.5000000  -0.5000000), wk =   0.0092593
        k(   81) = (   0.1666667  -0.0000000  -0.1666667), wk =   0.0185185
        k(   82) = (   0.1666667  -0.0000000  -0.3333333), wk =   0.0185185
        k(   83) = (   0.1666667  -0.1666667   0.0000000), wk =   0.0185185
        k(   84) = (   0.1666667  -0.1666667  -0.1666667), wk =   0.0185185
        k(   85) = (   0.1666667  -0.1666667  -0.3333333), wk =   0.0185185
        k(   86) = (   0.1666667  -0.1666667   0.5000000), wk =   0.0185185
        k(   87) = (   0.1666667  -0.1666667   0.3333333), wk =   0.0185185
        k(   88) = (   0.1666667  -0.1666667   0.1666667), wk =   0.0185185
        k(   89) = (   0.1666667  -0.3333333   0.0000000), wk =   0.0185185
        k(   90) = (   0.1666667  -0.3333333  -0.1666667), wk =   0.0185185
        k(   91) = (   0.1666667  -0.3333333  -0.3333333), wk =   0.0185185
        k(   92) = (   0.1666667  -0.3333333   0.5000000), wk =   0.0185185
        k(   93) = (   0.1666667  -0.3333333   0.3333333), wk =   0.0185185
        k(   94) = (   0.1666667  -0.3333333   0.1666667), wk =   0.0185185
        k(   95) = (   0.1666667   0.5000000  -0.1666667), wk =   0.0185185
        k(   96) = (   0.1666667   0.5000000  -0.3333333), wk =   0.0185185
        k(   97) = (   0.3333333  -0.0000000  -0.1666667), wk =   0.0185185
        k(   98) = (   0.3333333  -0.0000000  -0.3333333), wk =   0.0185185
        k(   99) = (   0.3333333  -0.1666667   0.0000000), wk =   0.0185185
        k(  100) = (   0.3333333  -0.1666667  -0.1666667), wk =   0.0185185
        k(  101) = (   0.3333333  -0.1666667  -0.3333333), wk =   0.0185185
        k(  102) = (   0.3333333  -0.1666667   0.5000000), wk =   0.0185185
        k(  103) = (   0.3333333  -0.1666667   0.3333333), wk =   0.0185185
        k(  104) = (   0.3333333  -0.1666667   0.1666667), wk =   0.0185185
        k(  105) = (   0.3333333  -0.3333333   0.0000000), wk =   0.0185185
        k(  106) = (   0.3333333  -0.3333333  -0.1666667), wk =   0.0185185
        k(  107) = (   0.3333333  -0.3333333  -0.3333333), wk =   0.0185185
        k(  108) = (   0.3333333  -0.3333333   0.5000000), wk =   0.0185185
        k(  109) = (   0.3333333  -0.3333333   0.3333333), wk =   0.0185185
        k(  110) = (   0.3333333  -0.3333333   0.1666667), wk =   0.0185185
        k(  111) = (   0.3333333   0.5000000  -0.1666667), wk =   0.0185185
        k(  112) = (   0.3333333   0.5000000  -0.3333333), wk =   0.0185185

     Dense  grid:  1986367 G-vectors     FFT dimensions: ( 180, 135, 192)

     Smooth grid:   481653 G-vectors     FFT dimensions: ( 108,  81, 120)

     Dynamical RAM for                 wfc:      79.36 MB

     Dynamical RAM for     wfc (w. buffer):      79.36 MB

     Dynamical RAM for           str. fact:       7.58 MB

     Dynamical RAM for           local pot:       0.00 MB

     Dynamical RAM for          nlocal pot:     297.70 MB

     Dynamical RAM for                qrad:       3.05 MB

     Dynamical RAM for          rho,v,vnew:      24.71 MB

     Dynamical RAM for               rhoin:       8.24 MB

     Dynamical RAM for            rho*nmix:      60.62 MB

     Dynamical RAM for           G-vectors:      14.67 MB

     Dynamical RAM for          h,s,v(r/c):      21.86 MB

     Dynamical RAM for          <psi|beta>:      27.33 MB

     Dynamical RAM for                 psi:     158.73 MB

     Dynamical RAM for                hpsi:     158.73 MB

     Dynamical RAM for                spsi:     158.73 MB

     Dynamical RAM for      wfcinit/wfcrot:     169.66 MB

     Dynamical RAM for           addusdens:      12.48 MB

     Estimated static dynamical RAM per process >     468.92 MB

     Estimated max dynamical RAM per process >       1.03 GB

     Estimated total dynamical RAM >     870.47 GB

     Initial potential from superposition of free atoms

     starting charge    1151.8050, renormalised to    1152.0000

     negative rho (up, down):  4.353E+00 0.000E+00
     Starting wfcs are 1224 randomized atomic wfcs

     total cpu time spent up to now is       22.1 secs

     per-process dynamical memory:   604.7 Mb

     Self-consistent Calculation

     iteration #  1     ecut=    35.00 Ry     beta= 0.35
     Davidson diagonalization with overlap

---- Real-time Memory Report at c_bands before calling an iterative solver
           975 MiB given to the printing process from OS
           590 MiB allocation reported by mallinfo(arena+hblkhd)
        193662 MiB available memory on the node where the printing process lives
------------------
     ethr =  1.00E-02,  avg # of iterations =  2.0

     Threshold (ethr) on eigenvalues was too large:
     Diagonalizing with lowered threshold

     Davidson diagonalization with overlap

---- Real-time Memory Report at c_bands before calling an iterative solver
          1205 MiB given to the printing process from OS
           637 MiB allocation reported by mallinfo(arena+hblkhd)
        191746 MiB available memory on the node where the printing process lives
------------------
     ethr =  2.00E-04,  avg # of iterations =  4.5

     negative rho (up, down):  4.379E+00 0.000E+00

     total cpu time spent up to now is       95.0 secs

     total energy              =   -7970.49851026 Ry
     estimated scf accuracy    <       2.85946940 Ry

     iteration #  2     ecut=    35.00 Ry     beta= 0.35
     Davidson diagonalization with overlap

---- Real-time Memory Report at c_bands before calling an iterative solver
          1218 MiB given to the printing process from OS
           638 MiB allocation reported by mallinfo(arena+hblkhd)
        191872 MiB available memory on the node where the printing process lives
------------------
     ethr =  2.48E-04,  avg # of iterations =  3.0

     negative rho (up, down):  4.392E+00 0.000E+00

     total cpu time spent up to now is      131.8 secs

     total energy              =   -7970.30268701 Ry
     estimated scf accuracy    <       2.97834719 Ry

     iteration #  3     ecut=    35.00 Ry     beta= 0.35
     Davidson diagonalization with overlap

---- Real-time Memory Report at c_bands before calling an iterative solver
          1218 MiB given to the printing process from OS
           642 MiB allocation reported by mallinfo(arena+hblkhd)
        191720 MiB available memory on the node where the printing process lives
------------------
     ethr =  2.48E-04,  avg # of iterations =  3.0

     negative rho (up, down):  4.408E+00 0.000E+00

     total cpu time spent up to now is      166.8 secs

     total energy              =   -7970.31912407 Ry
     estimated scf accuracy    <       7.99246999 Ry

     iteration #  4     ecut=    35.00 Ry     beta= 0.35
     Davidson diagonalization with overlap

---- Real-time Memory Report at c_bands before calling an iterative solver
          1223 MiB given to the printing process from OS
           644 MiB allocation reported by mallinfo(arena+hblkhd)
        191579 MiB available memory on the node where the printing process lives
------------------
     ethr =  2.48E-04,  avg # of iterations =  2.3

     negative rho (up, down):  4.416E+00 0.000E+00

     total cpu time spent up to now is      199.2 secs

     total energy              =   -7970.52834361 Ry
     estimated scf accuracy    <       6.13245725 Ry

     iteration #  5     ecut=    35.00 Ry     beta= 0.35
     Davidson diagonalization with overlap

---- Real-time Memory Report at c_bands before calling an iterative solver
          1223 MiB given to the printing process from OS
           644 MiB allocation reported by mallinfo(arena+hblkhd)
        191601 MiB available memory on the node where the printing process lives
------------------
     ethr =  2.48E-04,  avg # of iterations =  2.0

     negative rho (up, down):  4.425E+00 0.000E+00

     total cpu time spent up to now is      228.4 secs

     total energy              =   -7970.81086055 Ry
     estimated scf accuracy    <       0.70143457 Ry

     iteration #  6     ecut=    35.00 Ry     beta= 0.35
     Davidson diagonalization with overlap

---- Real-time Memory Report at c_bands before calling an iterative solver
          1224 MiB given to the printing process from OS
           651 MiB allocation reported by mallinfo(arena+hblkhd)
        191591 MiB available memory on the node where the printing process lives
------------------
     ethr =  6.09E-05,  avg # of iterations =  2.0

     negative rho (up, down):  4.431E+00 0.000E+00

     total cpu time spent up to now is      259.2 secs

     total energy              =   -7970.84405710 Ry
     estimated scf accuracy    <       0.26880625 Ry

     iteration #  7     ecut=    35.00 Ry     beta= 0.35
     Davidson diagonalization with overlap

---- Real-time Memory Report at c_bands before calling an iterative solver
          1224 MiB given to the printing process from OS
           651 MiB allocation reported by mallinfo(arena+hblkhd)
        191615 MiB available memory on the node where the printing process lives
------------------
     ethr =  2.33E-05,  avg # of iterations = 19.7

     negative rho (up, down):  4.440E+00 0.000E+00

     total cpu time spent up to now is      334.2 secs

     total energy              =   -7970.84302988 Ry
     estimated scf accuracy    <       0.66153379 Ry

     iteration #  8     ecut=    35.00 Ry     beta= 0.35
     Davidson diagonalization with overlap

---- Real-time Memory Report at c_bands before calling an iterative solver
          1224 MiB given to the printing process from OS
           651 MiB allocation reported by mallinfo(arena+hblkhd)
        191623 MiB available memory on the node where the printing process lives
------------------
     ethr =  2.33E-05,  avg # of iterations =  3.2

     negative rho (up, down):  4.445E+00 0.000E+00

     total cpu time spent up to now is      370.6 secs

     total energy              =   -7970.87033490 Ry
     estimated scf accuracy    <       0.08233351 Ry

     iteration #  9     ecut=    35.00 Ry     beta= 0.35
     Davidson diagonalization with overlap

---- Real-time Memory Report at c_bands before calling an iterative solver
          1225 MiB given to the printing process from OS
           651 MiB allocation reported by mallinfo(arena+hblkhd)
        191643 MiB available memory on the node where the printing process lives
------------------
     ethr =  7.15E-06,  avg # of iterations = 19.9

     negative rho (up, down):  4.448E+00 0.000E+00

     total cpu time spent up to now is      436.8 secs

     total energy              =   -7970.87619350 Ry
     estimated scf accuracy    <       0.02092548 Ry

     iteration # 10     ecut=    35.00 Ry     beta= 0.35
     Davidson diagonalization with overlap

---- Real-time Memory Report at c_bands before calling an iterative solver
          1233 MiB given to the printing process from OS
           659 MiB allocation reported by mallinfo(arena+hblkhd)
        191598 MiB available memory on the node where the printing process lives
------------------
     ethr =  1.82E-06,  avg # of iterations = 19.8

     negative rho (up, down):  4.449E+00 0.000E+00

     total cpu time spent up to now is      511.2 secs

     total energy              =   -7970.87677362 Ry
     estimated scf accuracy    <       0.03454751 Ry

     iteration # 11     ecut=    35.00 Ry     beta= 0.35
     Davidson diagonalization with overlap

---- Real-time Memory Report at c_bands before calling an iterative solver
          1233 MiB given to the printing process from OS
           664 MiB allocation reported by mallinfo(arena+hblkhd)
        191437 MiB available memory on the node where the printing process lives
------------------
     ethr =  1.82E-06,  avg # of iterations =  4.9

     negative rho (up, down):  4.450E+00 0.000E+00

     total cpu time spent up to now is      552.9 secs

     total energy              =   -7970.87767312 Ry
     estimated scf accuracy    <       0.02825131 Ry

     iteration # 12     ecut=    35.00 Ry     beta= 0.35
     Davidson diagonalization with overlap

---- Real-time Memory Report at c_bands before calling an iterative solver
          1248 MiB given to the printing process from OS
           664 MiB allocation reported by mallinfo(arena+hblkhd)
        191743 MiB available memory on the node where the printing process lives
------------------
     ethr =  1.82E-06,  avg # of iterations =  1.5

     negative rho (up, down):  4.450E+00 0.000E+00

     total cpu time spent up to now is      581.9 secs

     total energy              =   -7970.87906751 Ry
     estimated scf accuracy    <       0.00224404 Ry

     iteration # 13     ecut=    35.00 Ry     beta= 0.35
     Davidson diagonalization with overlap

---- Real-time Memory Report at c_bands before calling an iterative solver
          1248 MiB given to the printing process from OS
           664 MiB allocation reported by mallinfo(arena+hblkhd)
        191637 MiB available memory on the node where the printing process lives
------------------
     ethr =  1.95E-07,  avg # of iterations =  2.1

     negative rho (up, down):  4.450E+00 0.000E+00

     total cpu time spent up to now is      613.7 secs

     total energy              =   -7970.87914162 Ry
     estimated scf accuracy    <       0.00176756 Ry

     iteration # 14     ecut=    35.00 Ry     beta= 0.35
     Davidson diagonalization with overlap

---- Real-time Memory Report at c_bands before calling an iterative solver
          1248 MiB given to the printing process from OS
           664 MiB allocation reported by mallinfo(arena+hblkhd)
        191664 MiB available memory on the node where the printing process lives
------------------
     ethr =  1.53E-07,  avg # of iterations =  2.0

     negative rho (up, down):  4.451E+00 0.000E+00

     total cpu time spent up to now is      643.3 secs

     total energy              =   -7970.87916958 Ry
     estimated scf accuracy    <       0.00270766 Ry

     iteration # 15     ecut=    35.00 Ry     beta= 0.35
     Davidson diagonalization with overlap

---- Real-time Memory Report at c_bands before calling an iterative solver
          1248 MiB given to the printing process from OS
           664 MiB allocation reported by mallinfo(arena+hblkhd)
        191601 MiB available memory on the node where the printing process lives
------------------
     ethr =  1.53E-07,  avg # of iterations =  2.0

     negative rho (up, down):  4.451E+00 0.000E+00

     total cpu time spent up to now is      672.7 secs

     total energy              =   -7970.87922745 Ry
     estimated scf accuracy    <       0.00206351 Ry

     iteration # 16     ecut=    35.00 Ry     beta= 0.35
     Davidson diagonalization with overlap

---- Real-time Memory Report at c_bands before calling an iterative solver
          1248 MiB given to the printing process from OS
           664 MiB allocation reported by mallinfo(arena+hblkhd)
        191651 MiB available memory on the node where the printing process lives
------------------
     ethr =  1.53E-07,  avg # of iterations =  1.0

     negative rho (up, down):  4.451E+00 0.000E+00

     total cpu time spent up to now is      698.6 secs

     total energy              =   -7970.87932307 Ry
     estimated scf accuracy    <       0.00032030 Ry

     iteration # 17     ecut=    35.00 Ry     beta= 0.35
     Davidson diagonalization with overlap

---- Real-time Memory Report at c_bands before calling an iterative solver
          1248 MiB given to the printing process from OS
           664 MiB allocation reported by mallinfo(arena+hblkhd)
        191556 MiB available memory on the node where the printing process lives
------------------
     ethr =  2.78E-08,  avg # of iterations =  2.0

     negative rho (up, down):  4.451E+00 0.000E+00

     total cpu time spent up to now is      728.2 secs

     total energy              =   -7970.87933969 Ry
     estimated scf accuracy    <       0.00015167 Ry

     iteration # 18     ecut=    35.00 Ry     beta= 0.35
     Davidson diagonalization with overlap

---- Real-time Memory Report at c_bands before calling an iterative solver
          1248 MiB given to the printing process from OS
           664 MiB allocation reported by mallinfo(arena+hblkhd)
        191629 MiB available memory on the node where the printing process lives
------------------
     ethr =  1.32E-08,  avg # of iterations =  2.0

     negative rho (up, down):  4.451E+00 0.000E+00

     total cpu time spent up to now is      757.7 secs

     total energy              =   -7970.87934594 Ry
     estimated scf accuracy    <       0.00004998 Ry

     iteration # 19     ecut=    35.00 Ry     beta= 0.35
     Davidson diagonalization with overlap

---- Real-time Memory Report at c_bands before calling an iterative solver
          1248 MiB given to the printing process from OS
           664 MiB allocation reported by mallinfo(arena+hblkhd)
        191625 MiB available memory on the node where the printing process lives
------------------
     ethr =  4.34E-09,  avg # of iterations =  3.3

     negative rho (up, down):  4.451E+00 0.000E+00

     total cpu time spent up to now is      791.7 secs

     total energy              =   -7970.87934494 Ry
     estimated scf accuracy    <       0.00018568 Ry

     iteration # 20     ecut=    35.00 Ry     beta= 0.35
     Davidson diagonalization with overlap

---- Real-time Memory Report at c_bands before calling an iterative solver
          1248 MiB given to the printing process from OS
           664 MiB allocation reported by mallinfo(arena+hblkhd)
        191659 MiB available memory on the node where the printing process lives
------------------
     ethr =  4.34E-09,  avg # of iterations =  2.1

     negative rho (up, down):  4.451E+00 0.000E+00

     total cpu time spent up to now is      821.4 secs

     total energy              =   -7970.87935290 Ry
     estimated scf accuracy    <       0.00000992 Ry

     iteration # 21     ecut=    35.00 Ry     beta= 0.35
     Davidson diagonalization with overlap

---- Real-time Memory Report at c_bands before calling an iterative solver
          1248 MiB given to the printing process from OS
           664 MiB allocation reported by mallinfo(arena+hblkhd)
        191617 MiB available memory on the node where the printing process lives
------------------
     ethr =  8.61E-10,  avg # of iterations =  2.5

     negative rho (up, down):  4.451E+00 0.000E+00

     total cpu time spent up to now is      854.5 secs

     total energy              =   -7970.87935331 Ry
     estimated scf accuracy    <       0.00000945 Ry

     iteration # 22     ecut=    35.00 Ry     beta= 0.35
     Davidson diagonalization with overlap

---- Real-time Memory Report at c_bands before calling an iterative solver
          1248 MiB given to the printing process from OS
           664 MiB allocation reported by mallinfo(arena+hblkhd)
        191651 MiB available memory on the node where the printing process lives
------------------
     ethr =  8.20E-10,  avg # of iterations =  2.0

     negative rho (up, down):  4.451E+00 0.000E+00

     total cpu time spent up to now is      884.4 secs

     total energy              =   -7970.87935326 Ry
     estimated scf accuracy    <       0.00001472 Ry

     iteration # 23     ecut=    35.00 Ry     beta= 0.35
     Davidson diagonalization with overlap

---- Real-time Memory Report at c_bands before calling an iterative solver
          1248 MiB given to the printing process from OS
           664 MiB allocation reported by mallinfo(arena+hblkhd)
        191621 MiB available memory on the node where the printing process lives
------------------
     ethr =  8.20E-10,  avg # of iterations =  2.0

     negative rho (up, down):  4.451E+00 0.000E+00

     total cpu time spent up to now is      913.6 secs

     total energy              =   -7970.87935396 Ry
     estimated scf accuracy    <       0.00000284 Ry

     iteration # 24     ecut=    35.00 Ry     beta= 0.35
     Davidson diagonalization with overlap

---- Real-time Memory Report at c_bands before calling an iterative solver
          1248 MiB given to the printing process from OS
           664 MiB allocation reported by mallinfo(arena+hblkhd)
        191665 MiB available memory on the node where the printing process lives
------------------
     ethr =  2.46E-10,  avg # of iterations =  2.0

     negative rho (up, down):  4.450E+00 0.000E+00

     total cpu time spent up to now is      943.0 secs

     End of self-consistent calculation

          k = 0.0000 0.0000 0.0000 ( 60193 PWs)   bands (ev):

   -35.2067 -35.2019 -35.1906 -35.1873 -35.1859 -35.1784 -35.1775 -35.1758
   -35.1754 -35.1729 -35.1709 -35.1648 -35.1624 -35.1613 -35.1558 -35.1531
   -35.1506 -35.1487 -35.1473 -35.1442 -35.1384 -35.1346 -35.1331 -35.1324
   -35.1311 -35.1302 -35.1286 -35.1275 -35.1248 -35.1238 -35.1223 -35.1179
   -35.1178 -35.1165 -35.1156 -35.1137 -35.1132 -35.1124 -35.1086 -35.1037
   -35.1029 -35.1015 -35.1004 -35.0977 -35.0961 -35.0959 -35.0949 -35.0938
   -35.0936 -35.0910 -35.0858 -35.0824 -35.0800 -35.0786 -35.0771 -35.0751
   -35.0720 -35.0689 -35.0683 -35.0670 -35.0665 -35.0606 -35.0583 -35.0553
   -35.0533 -35.0517 -35.0366 -35.0332 -35.0222 -35.0218 -35.0176 -35.0106
   -13.4455 -13.4431 -13.4407 -13.4394 -13.4372 -13.4333 -13.4250 -13.4230
   -13.4196 -13.4189 -13.4174 -13.4153 -13.4114 -13.4097 -13.4077 -13.4059
   -13.4043 -13.4017 -13.4002 -13.3975 -13.3969 -13.3949 -13.3942 -13.3914
   -13.3908 -13.3901 -13.3878 -13.3868 -13.3845 -13.3838 -13.3821 -13.3795
   -13.3792 -13.3776 -13.3762 -13.3752 -13.3735 -13.3721 -13.3699 -13.3680
   -13.3669 -13.3657 -13.3636 -13.3624 -13.3619 -13.3600 -13.3577 -13.3567
   -13.3543 -13.3526 -13.3484 -13.3469 -13.3430 -13.3402 -13.3387 -13.3348
   -13.3325 -13.3282 -13.3269 -13.3237 -13.3213 -13.3205 -13.3171 -13.3164
   -13.3137 -13.3122 -13.3100 -13.3066 -13.3025 -13.3011 -13.2977 -13.2946
   -13.2895 -13.2860 -13.2824 -13.2817 -13.2790 -13.2756 -13.2735 -13.2707
   -13.2681 -13.2660 -13.2641 -13.2617 -13.2590 -13.2580 -13.2561 -13.2531
   -13.2479 -13.2438 -13.2398 -13.2369 -13.2343 -13.2334 -13.2320 -13.2311
   -13.2292 -13.2261 -13.2248 -13.2242 -13.2235 -13.2227 -13.2220 -13.2166
   -13.2146 -13.2120 -13.2082 -13.2056 -13.2006 -13.1977 -13.1961 -13.1956
   -13.1948 -13.1925 -13.1920 -13.1885 -13.1879 -13.1868 -13.1858 -13.1840
   -13.1816 -13.1807 -13.1786 -13.1772 -13.1730 -13.1719 -13.1690 -13.1689
   -13.1668 -13.1656 -13.1643 -13.1618 -13.1614 -13.1585 -13.1579 -13.1559
   -13.1526 -13.1510 -13.1497 -13.1486 -13.1471 -13.1456 -13.1436 -13.1422
   -13.1397 -13.1385 -13.1371 -13.1358 -13.1340 -13.1325 -13.1293 -13.1288
   -13.1270 -13.1260 -13.1241 -13.1233 -13.1219 -13.1202 -13.1183 -13.1172
   -13.1162 -13.1158 -13.1139 -13.1113 -13.1087 -13.1085 -13.1052 -13.1017
   -13.0999 -13.0978 -13.0952 -13.0943 -13.0931 -13.0924 -13.0894 -13.0882
   -13.0866 -13.0837 -13.0823 -13.0802 -13.0777 -13.0776 -13.0747 -13.0729
   -13.0713 -13.0695 -13.0687 -13.0651 -13.0636 -13.0625 -13.0615 -13.0585
   -13.0566 -13.0563 -13.0523 -13.0486 -13.0478 -13.0458 -13.0442 -13.0397
   -13.0389 -13.0371 -13.0344 -13.0303 -13.0292 -13.0265 -13.0246 -13.0192
   -13.0171 -13.0122 -13.0086 -13.0044 -13.0036 -12.9941 -12.9827 -12.9658
     2.1968   2.5641   2.5915   2.8384   2.9357   2.9975   3.0284   3.0697
     3.1162   3.1677   3.1981   3.2393   3.2622   3.2860   3.3342   3.4750
     3.5076   3.5536   3.6030   3.6219   3.6506   3.6655   3.6852   3.7425
     3.7736   3.8415   3.8855   4.7165   4.7565   4.9115   4.9145   4.9188
     4.9354   4.9710   4.9743   4.9895   4.9947   5.0001   5.0131   5.0306
     5.0940   5.1420   5.1657   5.1751   5.2291   6.1951   6.2077   6.6265
     6.6413   6.6498   6.6701   6.6888   6.7032   6.7255   6.7714   6.7821
     6.7909   6.7948   6.8146   6.8217   6.8597   6.8686   6.8841   6.8906
     6.8982   6.9581   7.2046   7.2488   7.3872   7.4186   7.4391   7.4673
     8.1886   8.1918   8.2031   8.2155   8.6371   8.6685   8.6785   8.7222
     8.8079   8.8278   8.9009   8.9224   8.9492   8.9669   8.9812   8.9889
     8.9943   9.0118   9.0289   9.0297   9.0561   9.0620   9.0740   9.0832
     9.0924   9.1034   9.1075   9.1147   9.1197   9.1280   9.1363   9.1378
     9.1542   9.1710   9.1750   9.1987   9.6761   9.6918   9.7159   9.7398
     9.7421   9.7513   9.7520   9.7559   9.7675   9.7730   9.7810   9.7866
     9.8005   9.8085   9.8166   9.8229   9.8522   9.8582  10.1028  10.1487
    10.2190  10.2963  10.3132  10.3388  10.3481  10.3692  10.3756  10.4522
    10.4825  10.4863  10.4920  10.5066  10.5151  10.5185  10.5299  10.5376
    10.5411  10.5478  10.5544  10.5612  10.5674  10.5771  10.5799  10.5908
    10.5986  10.6026  10.6091  10.6188  10.6287  10.6409  10.6540  10.6620
    10.6759  10.6904  10.7130  10.7224  10.7242  10.7979  10.8198  10.8563
    10.8724  10.8756  10.8908  10.8979  10.9059  10.9161  10.9352  10.9409
    10.9638  10.9705  10.9775  10.9937  11.0006  11.0077  11.0124  11.0202
    11.0278  11.0312  11.0527  11.0730  11.0916  11.1055  11.1086  11.1274
    11.1599  11.1926  11.2418  11.2625  11.2996  11.3108  11.3158  11.3378
    11.3592  11.3702  11.3865  11.3979  11.4152  11.4403  11.4426  11.4645
    11.4926  11.5164  11.5725  11.5742  11.6213  11.6332  11.6494  11.6548
    11.8620  11.8955  12.0179  12.0295  12.0405  12.0431  12.0489  12.0529
    12.0606  12.0845  12.0889  12.0992  12.1049  12.1114  12.1173  12.1179
    12.1346  12.1476  12.1697  12.1805  12.1840  12.1952  12.2201  12.2402
    12.2709  12.2731  12.3012  12.3144  12.3320  12.3435  12.3514  12.3838
    12.4112  12.4229  12.4293  12.4384  12.5005  12.5218  12.5253  12.5818
    12.6085  12.6094  12.6194  12.6524  12.6601  12.6717  12.6867  12.6935
    12.7006  12.7100  12.7291  12.7357  12.7815  12.8355  12.8491  12.8832
    12.9180  12.9271  12.9601  12.9725  13.0071  13.1924  13.2111  13.2234
    13.2314  13.2475  13.2692  13.2889  13.2914  13.5307  13.5822  13.6133
    13.6635  13.7593  13.7941  13.8510  13.8633  13.8764  13.8909  13.9131
    13.9334  13.9748  14.0023  14.0067  14.0440  14.0616  14.0772  14.0874
    14.1022  14.1589  14.1773  14.2162  14.2300  14.2540  14.3244  14.3473
    14.3810  14.4215  14.4644  14.4851  14.5054  14.5180  14.5443  14.5594
    14.5626  14.5951  14.6210  14.6227  14.6358  14.6563  14.6688  14.6797
    14.7309  14.7585  14.8242  14.8291  14.8543  14.8676  14.8818  14.9044
    14.9205  14.9316  14.9501  14.9741  14.9780  15.0083  15.0230  15.0393
    15.0902  15.1274  15.1315  15.1838  15.2110  15.2185  15.2852  15.3096
    15.3438  15.3627  15.3713  15.3801  15.3969  15.4118  15.4168  15.4249
    15.4539  15.4851  15.5152  15.5188  15.5515  15.5811  15.5978  15.6161
    15.6410  15.6694  15.6798  15.6855  15.7072  15.7179  15.7262  15.7399
    15.7564  15.7700  15.7767  15.7845  15.7895  15.8008  15.8075  15.8133
    15.8230  15.8264  15.8358  15.8416  15.8515  15.8572  15.8688  15.8914
    15.8996  15.9151  15.9247  15.9325  15.9420  15.9487  15.9663  15.9691
    15.9884  16.0054  16.0255

     occupation numbers 
     1.0000   1.0000   1.0000   1.0000   1.0000   1.0000   1.0000   1.0000
     1.0000   1.0000   1.0000   1.0000   1.0000   1.0000   1.0000   1.0000
     1.0000   1.0000   1.0000   1.0000   1.0000   1.0000   1.0000   1.0000
     1.0000   1.0000   1.0000   1.0000   1.0000   1.0000   1.0000   1.0000
     1.0000   1.0000   1.0000   1.0000   1.0000   1.0000   1.0000   1.0000
     1.0000   1.0000   1.0000   1.0000   1.0000   1.0000   1.0000   1.0000
     1.0000   1.0000   1.0000   1.0000   1.0000   1.0000   1.0000   1.0000
     1.0000   1.0000   1.0000   1.0000   1.0000   1.0000   1.0000   1.0000
     1.0000   1.0000   1.0000   1.0000   1.0000   1.0000   1.0000   1.0000
     1.0000   1.0000   1.0000   1.0000   1.0000   1.0000   1.0000   1.0000
     1.0000   1.0000   1.0000   1.0000   1.0000   1.0000   1.0000   1.0000
     1.0000   1.0000   1.0000   1.0000   1.0000   1.0000   1.0000   1.0000
     1.0000   1.0000   1.0000   1.0000   1.0000   1.0000   1.0000   1.0000
     1.0000   1.0000   1.0000   1.0000   1.0000   1.0000   1.0000   1.0000
     1.0000   1.0000   1.0000   1.0000   1.0000   1.0000   1.0000   1.0000
     1.0000   1.0000   1.0000   1.0000   1.0000   1.0000   1.0000   1.0000
     1.0000   1.0000   1.0000   1.0000   1.0000   1.0000   1.0000   1.0000
     1.0000   1.0000   1.0000   1.0000   1.0000   1.0000   1.0000   1.0000
     1.0000   1.0000   1.0000   1.0000   1.0000   1.0000   1.0000   1.0000
     1.0000   1.0000   1.0000   1.0000   1.0000   1.0000   1.0000   1.0000
     1.0000   1.0000   1.0000   1.0000   1.0000   1.0000   1.0000   1.0000
     1.0000   1.0000   1.0000   1.0000   1.0000   1.0000   1.0000   1.0000
     1.0000   1.0000   1.0000   1.0000   1.0000   1.0000   1.0000   1.0000
     1.0000   1.0000   1.0000   1.0000   1.0000   1.0000   1.0000   1.0000
     1.0000   1.0000   1.0000   1.0000   1.0000   1.0000   1.0000   1.0000
     1.0000   1.0000   1.0000   1.0000   1.0000   1.0000   1.0000   1.0000
     1.0000   1.0000   1.0000   1.0000   1.0000   1.0000   1.0000   1.0000
     1.0000   1.0000   1.0000   1.0000   1.0000   1.0000   1.0000   1.0000
     1.0000   1.0000   1.0000   1.0000   1.0000   1.0000   1.0000   1.0000
     1.0000   1.0000   1.0000   1.0000   1.0000   1.0000   1.0000   1.0000
     1.0000   1.0000   1.0000   1.0000   1.0000   1.0000   1.0000   1.0000
     1.0000   1.0000   1.0000   1.0000   1.0000   1.0000   1.0000   1.0000
     1.0000   1.0000   1.0000   1.0000   1.0000   1.0000   1.0000   1.0000
     1.0000   1.0000   1.0000   1.0000   1.0000   1.0000   1.0000   1.0000
     1.0000   1.0000   1.0000   1.0000   1.0000   1.0000   1.0000   1.0000
     1.0000   1.0000   1.0000   1.0000   1.0000   1.0000   1.0000   1.0000
     1.0000   1.0000   1.0000   1.0000   1.0000   1.0000   1.0000   1.0000
     1.0000   1.0000   1.0000   1.0000   1.0000   1.0000   1.0000   1.0000
     1.0000   1.0000   1.0000   1.0000   1.0000   1.0000   1.0000   1.0000
     1.0000   1.0000   1.0000   1.0000   1.0000   1.0000   1.0000   1.0000
     1.0000   1.0000   1.0000   1.0000   1.0000   1.0000   1.0000   1.0000
     1.0000   1.0000   1.0000   1.0000   1.0000   1.0000   1.0000   1.0000
     1.0000   1.0000   1.0000   1.0000   1.0000   1.0000   1.0000   1.0000
     1.0000   1.0000   1.0000   1.0000   1.0000   1.0000   1.0000   1.0000
     1.0000   1.0000   1.0000   1.0000   1.0000   1.0000   1.0000   1.0000
     1.0000   1.0000   1.0000   1.0000   1.0000   1.0000   1.0000   1.0000
     1.0000   1.0000   1.0000   1.0000   1.0000   1.0000   1.0000   1.0000
     1.0000   1.0000   1.0000   1.0000   1.0000   1.0000   1.0000   1.0000
     1.0000   1.0000   1.0000   1.0000   1.0000   1.0000   1.0000   1.0000
     1.0000   1.0000   1.0000   1.0000   1.0000   1.0000   1.0000   1.0000
     1.0000   1.0000   1.0000   1.0000   1.0000   1.0000   1.0000   1.0000
     1.0000   1.0000   1.0000   1.0000   1.0000   1.0000   1.0000   1.0000
     1.0000   1.0000   1.0000   1.0000   1.0000   1.0000   1.0000   1.0000
     1.0000   1.0000   1.0000   1.0000   1.0000   1.0000   1.0000   1.0000
     1.0000   1.0000   1.0000   1.0000   1.0000   1.0000   1.0000   1.0000
     1.0000   1.0000   1.0000   1.0000   1.0000   1.0000   1.0000   1.0000
     1.0000   1.0000   1.0000   1.0000   1.0000   1.0000   1.0000   1.0000
     1.0000   1.0000   1.0000   1.0000   1.0000   1.0000   1.0000   1.0000
     1.0000   1.0000   1.0000   1.0000   1.0000   1.0000   1.0000   1.0000
     1.0000   1.0000   1.0000   1.0000   1.0000   1.0000   1.0000   1.0000
     1.0000   1.0000   1.0000   1.0000   1.0000   1.0000   1.0000   1.0000
     1.0000   1.0000   1.0000   1.0000   1.0000   1.0000   1.0000   1.0000
     1.0000   1.0000   1.0000   1.0000   1.0000   1.0000   1.0000   1.0000
     1.0000   1.0000   1.0000   1.0000   1.0000   1.0000   1.0000   1.0000
     1.0000   1.0000   1.0000   1.0000   1.0000   1.0000   1.0000   1.0000
     1.0000   1.0000   1.0000   1.0000   1.0000   1.0000   1.0000   1.0000
     1.0000   1.0000   1.0000   1.0000   1.0000   1.0000   1.0000   1.0000
     1.0000   1.0000   1.0000   1.0000   1.0000   1.0000   1.0000   1.0000
     1.0001   1.0001   1.0001   1.0001   1.0002   1.0002   1.0003   1.0003
     1.0004   1.0004   1.0006   1.0007   1.0015   1.0035   1.0043   1.0069
     1.0108   1.0120   1.0175   1.0200   1.0282   1.0823   1.0833   1.0828
     1.0818   1.0783   1.0699   1.0582   1.0564   0.5741   0.4348   0.3572
     0.2478   0.1040   0.0718   0.0365   0.0313   0.0263   0.0217   0.0159
     0.0119   0.0063   0.0041   0.0038   0.0020   0.0015   0.0011   0.0009
     0.0007   0.0002   0.0002   0.0001   0.0000   0.0000   0.0000   0.0000
     0.0000   0.0000   0.0000   0.0000   0.0000   0.0000   0.0000   0.0000
     0.0000   0.0000   0.0000   0.0000   0.0000   0.0000   0.0000   0.0000
     0.0000   0.0000   0.0000   0.0000   0.0000   0.0000   0.0000   0.0000
     0.0000   0.0000   0.0000   0.0000   0.0000   0.0000   0.0000   0.0000
     0.0000   0.0000   0.0000   0.0000   0.0000   0.0000   0.0000   0.0000
     0.0000   0.0000   0.0000   0.0000   0.0000   0.0000   0.0000   0.0000
     0.0000   0.0000   0.0000   0.0000   0.0000   0.0000   0.0000   0.0000
     0.0000   0.0000   0.0000   0.0000   0.0000   0.0000   0.0000   0.0000
     0.0000   0.0000   0.0000   0.0000   0.0000   0.0000   0.0000   0.0000
     0.0000   0.0000   0.0000   0.0000   0.0000   0.0000   0.0000   0.0000
     0.0000   0.0000   0.0000   0.0000   0.0000   0.0000   0.0000   0.0000
     0.0000   0.0000   0.0000

          k = 0.0000-0.0596 0.1572 ( 60223 PWs)   bands (ev):

   -35.2067 -35.2019 -35.1905 -35.1874 -35.1859 -35.1785 -35.1775 -35.1759
   -35.1754 -35.1729 -35.1709 -35.1648 -35.1625 -35.1612 -35.1558 -35.1532
   -35.1504 -35.1487 -35.1474 -35.1442 -35.1385 -35.1344 -35.1332 -35.1324
   -35.1313 -35.1300 -35.1285 -35.1276 -35.1247 -35.1238 -35.1223 -35.1180
   -35.1178 -35.1165 -35.1156 -35.1137 -35.1132 -35.1124 -35.1086 -35.1038
   -35.1028 -35.1015 -35.1004 -35.0976 -35.0961 -35.0958 -35.0948 -35.0938
   -35.0936 -35.0913 -35.0858 -35.0822 -35.0800 -35.0787 -35.0771 -35.0751
   -35.0720 -35.0689 -35.0683 -35.0671 -35.0665 -35.0606 -35.0583 -35.0553
   -35.0533 -35.0517 -35.0366 -35.0332 -35.0222 -35.0218 -35.0176 -35.0106
   -13.4530 -13.4491 -13.4429 -13.4380 -13.4310 -13.4248 -13.4241 -13.4216
   -13.4195 -13.4174 -13.4161 -13.4126 -13.4107 -13.4091 -13.4074 -13.4052
   -13.4042 -13.4010 -13.3997 -13.3978 -13.3966 -13.3959 -13.3940 -13.3927
   -13.3905 -13.3897 -13.3882 -13.3870 -13.3850 -13.3839 -13.3820 -13.3794
   -13.3784 -13.3775 -13.3745 -13.3739 -13.3729 -13.3712 -13.3706 -13.3679
   -13.3665 -13.3663 -13.3649 -13.3636 -13.3614 -13.3607 -13.3580 -13.3575
   -13.3550 -13.3532 -13.3513 -13.3488 -13.3445 -13.3442 -13.3413 -13.3399
   -13.3367 -13.3340 -13.3285 -13.3246 -13.3226 -13.3210 -13.3187 -13.3166
   -13.3147 -13.3139 -13.3109 -13.3063 -13.3023 -13.2972 -13.2919 -13.2897
   -13.2864 -13.2846 -13.2815 -13.2780 -13.2755 -13.2737 -13.2712 -13.2682
   -13.2665 -13.2654 -13.2626 -13.2603 -13.2579 -13.2568 -13.2551 -13.2523
   -13.2490 -13.2443 -13.2412 -13.2396 -13.2381 -13.2332 -13.2324 -13.2314
   -13.2285 -13.2264 -13.2248 -13.2227 -13.2210 -13.2207 -13.2190 -13.2153
   -13.2148 -13.2120 -13.2093 -13.2068 -13.2032 -13.2010 -13.1995 -13.1978
   -13.1963 -13.1922 -13.1906 -13.1886 -13.1877 -13.1859 -13.1844 -13.1831
   -13.1803 -13.1784 -13.1764 -13.1747 -13.1735 -13.1723 -13.1703 -13.1686
   -13.1673 -13.1660 -13.1652 -13.1639 -13.1631 -13.1623 -13.1589 -13.1576
   -13.1561 -13.1534 -13.1520 -13.1510 -13.1486 -13.1480 -13.1456 -13.1449
   -13.1431 -13.1408 -13.1384 -13.1348 -13.1331 -13.1308 -13.1298 -13.1278
   -13.1263 -13.1247 -13.1235 -13.1222 -13.1197 -13.1178 -13.1165 -13.1156
   -13.1141 -13.1118 -13.1104 -13.1089 -13.1073 -13.1065 -13.1031 -13.1018
   -13.0997 -13.0975 -13.0960 -13.0946 -13.0938 -13.0915 -13.0894 -13.0882
   -13.0881 -13.0848 -13.0828 -13.0803 -13.0792 -13.0766 -13.0750 -13.0725
   -13.0708 -13.0700 -13.0673 -13.0663 -13.0641 -13.0623 -13.0616 -13.0577
   -13.0565 -13.0557 -13.0522 -13.0497 -13.0483 -13.0466 -13.0443 -13.0405
   -13.0397 -13.0377 -13.0339 -13.0302 -13.0289 -13.0271 -13.0241 -13.0195
   -13.0165 -13.0119 -13.0089 -13.0052 -13.0028 -12.9943 -12.9825 -12.9660
     2.2108   2.4882   2.6526   2.8495   2.9463   2.9882   3.0228   3.0775
     3.1042   3.1359   3.2153   3.2267   3.2554   3.2870   3.3642   3.4680
     3.5121   3.5583   3.5932   3.6268   3.6418   3.6854   3.6980   3.7436
     3.7674   3.8358   3.8800   4.7250   4.7646   4.8788   4.9019   4.9165
     4.9442   4.9499   4.9630   4.9805   5.0053   5.0149   5.0383   5.0535
     5.1112   5.1349   5.1586   5.1699   5.2218   6.0972   6.3221   6.6133
     6.6276   6.6503   6.6741   6.6897   6.7027   6.7196   6.7706   6.7805
     6.7910   6.7954   6.8133   6.8215   6.8572   6.8707   6.8828   6.8900
     6.8976   6.9576   7.2020   7.2433   7.3152   7.3595   7.5210   7.5752
     8.1276   8.1349   8.2973   8.3172   8.4517   8.4916   8.8078   8.8336
     8.8501   8.8611   8.8682   8.8976   8.9291   8.9362   8.9503   8.9715
     8.9769   8.9939   9.0054   9.0138   9.0383   9.0590   9.0723   9.0873
     9.0934   9.1095   9.1238   9.1345   9.1503   9.1599   9.1844   9.2093
     9.2142   9.2374   9.2570   9.2654   9.6081   9.6138   9.6343   9.6395
     9.6796   9.6930   9.7233   9.7394   9.7499   9.7569   9.7697   9.7815
     9.8165   9.8222   9.8645   9.8743   9.8879   9.8936  10.1101  10.1539
    10.2074  10.2565  10.2677  10.3237  10.3625  10.3769  10.3843  10.4016
    10.4196  10.4369  10.4475  10.4700  10.4868  10.4932  10.5119  10.5172
    10.5306  10.5390  10.5573  10.5751  10.5825  10.5923  10.6036  10.6157
    10.6245  10.6346  10.6421  10.6510  10.6649  10.6765  10.6901  10.7033
    10.7182  10.7275  10.7370  10.7428  10.7623  10.7891  10.8281  10.8480
    10.8562  10.8653  10.8821  10.8868  10.9000  10.9109  10.9247  10.9381
    10.9498  10.9663  10.9789  10.9907  10.9995  11.0034  11.0140  11.0266
[...]
Note: The following floating-point exceptions are signalling: IEEE_UNDERFLOW_FLAG IEEE_DENORMAL
Note: The following floating-point exceptions are signalling: IEEE_UNDERFLOW_FLAG IEEE_DENORMAL
Note: The following floating-point exceptions are signalling: IEEE_UNDERFLOW_FLAG IEEE_DENORMAL
Note: The following floating-point exceptions are signalling: IEEE_UNDERFLOW_FLAG IEEE_DENORMAL
Note: The following floating-point exceptions are signalling: IEEE_UNDERFLOW_FLAG IEEE_DENORMAL
Note: The following floating-point exceptions are signalling: IEEE_UNDERFLOW_FLAG IEEE_DENORMAL
Note: The following floating-point exceptions are signalling: IEEE_UNDERFLOW_FLAG IEEE_DENORMAL
Note: The following floating-point exceptions are signalling: IEEE_UNDERFLOW_FLAG IEEE_DENORMAL
Note: The following floating-point exceptions are signalling: IEEE_UNDERFLOW_FLAG IEEE_DENORMAL
Note: The following floating-point exceptions are signalling: IEEE_UNDERFLOW_FLAG IEEE_DENORMAL
Note: The following floating-point exceptions are signalling: IEEE_UNDERFLOW_FLAG IEEE_DENORMAL
Note: The following floating-point exceptions are signalling: IEEE_UNDERFLOW_FLAG IEEE_DENORMAL
Note: The following floating-point exceptions are signalling: IEEE_UNDERFLOW_FLAG IEEE_DENORMAL
Note: The following floating-point exceptions are signalling: IEEE_UNDERFLOW_FLAG IEEE_DENORMAL
Note: The following floating-point exceptions are signalling: IEEE_UNDERFLOW_FLAG IEEE_DENORMAL
Note: The following floating-point exceptions are signalling: IEEE_UNDERFLOW_FLAG IEEE_DENORMAL
Note: The following floating-point exceptions are signalling: IEEE_UNDERFLOW_FLAG IEEE_DENORMAL
Note: The following floating-point exceptions are signalling: IEEE_UNDERFLOW_FLAG IEEE_DENORMAL
Note: The following floating-point exceptions are signalling: IEEE_UNDERFLOW_FLAG IEEE_DENORMAL
Note: The following floating-point exceptions are signalling: IEEE_UNDERFLOW_FLAG IEEE_DENORMAL
Note: The following floating-point exceptions are signalling: IEEE_UNDERFLOW_FLAG IEEE_DENORMAL
Note: The following floating-point exceptions are signalling: IEEE_UNDERFLOW_FLAG IEEE_DENORMAL
Note: The following floating-point exceptions are signalling: IEEE_UNDERFLOW_FLAG IEEE_DENORMAL
Note: The following floating-point exceptions are signalling: IEEE_UNDERFLOW_FLAG IEEE_DENORMAL
Note: The following floating-point exceptions are signalling: IEEE_UNDERFLOW_FLAG IEEE_DENORMAL
Note: The following floating-point exceptions are signalling: IEEE_UNDERFLOW_FLAG IEEE_DENORMAL
Note: The following floating-point exceptions are signalling: IEEE_UNDERFLOW_FLAG IEEE_DENORMAL
Note: The following floating-point exceptions are signalling: IEEE_UNDERFLOW_FLAG IEEE_DENORMAL
Note: The following floating-point exceptions are signalling: IEEE_UNDERFLOW_FLAG IEEE_DENORMAL
Note: The following floating-point exceptions are signalling: IEEE_UNDERFLOW_FLAG IEEE_DENORMAL
Note: The following floating-point exceptions are signalling: IEEE_UNDERFLOW_FLAG IEEE_DENORMAL
Note: The following floating-point exceptions are signalling: IEEE_UNDERFLOW_FLAG IEEE_DENORMAL
Note: The following floating-point exceptions are signalling: IEEE_UNDERFLOW_FLAG IEEE_DENORMAL
Note: The following floating-point exceptions are signalling: IEEE_UNDERFLOW_FLAG IEEE_DENORMAL
Note: The following floating-point exceptions are signalling: IEEE_UNDERFLOW_FLAG IEEE_DENORMAL
Note: The following floating-point exceptions are signalling: IEEE_UNDERFLOW_FLAG IEEE_DENORMAL
Note: The following floating-point exceptions are signalling: IEEE_UNDERFLOW_FLAG IEEE_DENORMAL
Note: The following floating-point exceptions are signalling: IEEE_UNDERFLOW_FLAG IEEE_DENORMAL
Note: The following floating-point exceptions are signalling: IEEE_UNDERFLOW_FLAG IEEE_DENORMAL
Note: The following floating-point exceptions are signalling: IEEE_UNDERFLOW_FLAG IEEE_DENORMAL
Note: The following floating-point exceptions are signalling: IEEE_UNDERFLOW_FLAG IEEE_DENORMAL
Note: The following floating-point exceptions are signalling: IEEE_UNDERFLOW_FLAG IEEE_DENORMAL
Note: The following floating-point exceptions are signalling: IEEE_UNDERFLOW_FLAG IEEE_DENORMAL
Note: The following floating-point exceptions are signalling: IEEE_UNDERFLOW_FLAG IEEE_DENORMAL
Note: The following floating-point exceptions are signalling: IEEE_UNDERFLOW_FLAG IEEE_DENORMAL
Note: The following floating-point exceptions are signalling: IEEE_UNDERFLOW_FLAG IEEE_DENORMAL
Note: The following floating-point exceptions are signalling: IEEE_UNDERFLOW_FLAG IEEE_DENORMAL
Note: The following floating-point exceptions are signalling: IEEE_UNDERFLOW_FLAG IEEE_DENORMAL
Note: The following floating-point exceptions are signalling: IEEE_UNDERFLOW_FLAG IEEE_DENORMAL
Note: The following floating-point exceptions are signalling: IEEE_UNDERFLOW_FLAG IEEE_DENORMAL
Note: The following floating-point exceptions are signalling: IEEE_UNDERFLOW_FLAG IEEE_DENORMAL
Note: The following floating-point exceptions are signalling: IEEE_UNDERFLOW_FLAG IEEE_DENORMAL
Note: The following floating-point exceptions are signalling: IEEE_UNDERFLOW_FLAG IEEE_DENORMAL
Note: The following floating-point exceptions are signalling: IEEE_UNDERFLOW_FLAG IEEE_DENORMAL
Note: The following floating-point exceptions are signalling: IEEE_UNDERFLOW_FLAG IEEE_DENORMAL
Note: The following floating-point exceptions are signalling: IEEE_UNDERFLOW_FLAG IEEE_DENORMAL
Note: The following floating-point exceptions are signalling: IEEE_UNDERFLOW_FLAG IEEE_DENORMAL
Note: The following floating-point exceptions are signalling: IEEE_UNDERFLOW_FLAG IEEE_DENORMAL
Note: The following floating-point exceptions are signalling: IEEE_UNDERFLOW_FLAG IEEE_DENORMAL
Note: The following floating-point exceptions are signalling: IEEE_UNDERFLOW_FLAG IEEE_DENORMAL
Note: The following floating-point exceptions are signalling: IEEE_UNDERFLOW_FLAG IEEE_DENORMAL
Note: The following floating-point exceptions are signalling: IEEE_UNDERFLOW_FLAG IEEE_DENORMAL
Note: The following floating-point exceptions are signalling: IEEE_UNDERFLOW_FLAG IEEE_DENORMAL
Note: The following floating-point exceptions are signalling: IEEE_UNDERFLOW_FLAG IEEE_DENORMAL
Note: The following floating-point exceptions are signalling: IEEE_UNDERFLOW_FLAG IEEE_DENORMAL
Note: The following floating-point exceptions are signalling: IEEE_UNDERFLOW_FLAG IEEE_DENORMAL
Note: The following floating-point exceptions are signalling: IEEE_UNDERFLOW_FLAG IEEE_DENORMAL
Note: The following floating-point exceptions are signalling: IEEE_UNDERFLOW_FLAG IEEE_DENORMAL
Note: The following floating-point exceptions are signalling: IEEE_UNDERFLOW_FLAG IEEE_DENORMAL
Note: The following floating-point exceptions are signalling: IEEE_UNDERFLOW_FLAG IEEE_DENORMAL
Note: The following floating-point exceptions are signalling: IEEE_UNDERFLOW_FLAG IEEE_DENORMAL
Note: The following floating-point exceptions are signalling: IEEE_UNDERFLOW_FLAG IEEE_DENORMAL
Note: The following floating-point exceptions are signalling: IEEE_UNDERFLOW_FLAG IEEE_DENORMAL
Note: The following floating-point exceptions are signalling: IEEE_UNDERFLOW_FLAG IEEE_DENORMAL
Note: The following floating-point exceptions are signalling: IEEE_UNDERFLOW_FLAG IEEE_DENORMAL
Note: The following floating-point exceptions are signalling: IEEE_UNDERFLOW_FLAG IEEE_DENORMAL
Note: The following floating-point exceptions are signalling: IEEE_UNDERFLOW_FLAG IEEE_DENORMAL
Note: The following floating-point exceptions are signalling: IEEE_UNDERFLOW_FLAG IEEE_DENORMAL
Note: The following floating-point exceptions are signalling: IEEE_UNDERFLOW_FLAG IEEE_DENORMAL
Note: The following floating-point exceptions are signalling: IEEE_UNDERFLOW_FLAG IEEE_DENORMAL
Note: The following floating-point exceptions are signalling: IEEE_UNDERFLOW_FLAG IEEE_DENORMAL
Note: The following floating-point exceptions are signalling: IEEE_UNDERFLOW_FLAG IEEE_DENORMAL
Note: The following floating-point exceptions are signalling: IEEE_UNDERFLOW_FLAG IEEE_DENORMAL
Note: The following floating-point exceptions are signalling: IEEE_UNDERFLOW_FLAG IEEE_DENORMAL
Note: The following floating-point exceptions are signalling: IEEE_UNDERFLOW_FLAG IEEE_DENORMAL
Note: The following floating-point exceptions are signalling: IEEE_UNDERFLOW_FLAG IEEE_DENORMAL
Note: The following floating-point exceptions are signalling: IEEE_UNDERFLOW_FLAG IEEE_DENORMAL
Note: The following floating-point exceptions are signalling: IEEE_UNDERFLOW_FLAG IEEE_DENORMAL
Note: The following floating-point exceptions are signalling: IEEE_UNDERFLOW_FLAG IEEE_DENORMAL
Note: The following floating-point exceptions are signalling: IEEE_UNDERFLOW_FLAG IEEE_DENORMAL
Note: The following floating-point exceptions are signalling: IEEE_UNDERFLOW_FLAG IEEE_DENORMAL
Note: The following floating-point exceptions are signalling: IEEE_UNDERFLOW_FLAG IEEE_DENORMAL
Note: The following floating-point exceptions are signalling: IEEE_UNDERFLOW_FLAG IEEE_DENORMAL
Note: The following floating-point exceptions are signalling: IEEE_UNDERFLOW_FLAG IEEE_DENORMAL
Note: The following floating-point exceptions are signalling: IEEE_UNDERFLOW_FLAG IEEE_DENORMAL
Note: The following floating-point exceptions are signalling: IEEE_UNDERFLOW_FLAG IEEE_DENORMAL
Note: The following floating-point exceptions are signalling: IEEE_UNDERFLOW_FLAG IEEE_DENORMAL
Note: The following floating-point exceptions are signalling: IEEE_UNDERFLOW_FLAG IEEE_DENORMAL
Note: The following floating-point exceptions are signalling: IEEE_UNDERFLOW_FLAG IEEE_DENORMAL
Note: The following floating-point exceptions are signalling: IEEE_UNDERFLOW_FLAG IEEE_DENORMAL
Note: The following floating-point exceptions are signalling: IEEE_UNDERFLOW_FLAG IEEE_DENORMAL
Note: The following floating-point exceptions are signalling: IEEE_UNDERFLOW_FLAG IEEE_DENORMAL
Note: The following floating-point exceptions are signalling: IEEE_UNDERFLOW_FLAG IEEE_DENORMAL
Note: The following floating-point exceptions are signalling: IEEE_UNDERFLOW_FLAG IEEE_DENORMAL
Note: The following floating-point exceptions are signalling: IEEE_UNDERFLOW_FLAG IEEE_DENORMAL
Note: The following floating-point exceptions are signalling: IEEE_UNDERFLOW_FLAG IEEE_DENORMAL
Note: The following floating-point exceptions are signalling: IEEE_UNDERFLOW_FLAG IEEE_DENORMAL
Note: The following floating-point exceptions are signalling: IEEE_UNDERFLOW_FLAG IEEE_DENORMAL
Note: The following floating-point exceptions are signalling: IEEE_UNDERFLOW_FLAG IEEE_DENORMAL
Note: The following floating-point exceptions are signalling: IEEE_UNDERFLOW_FLAG IEEE_DENORMAL
Note: The following floating-point exceptions are signalling: IEEE_UNDERFLOW_FLAG IEEE_DENORMAL
Note: The following floating-point exceptions are signalling: IEEE_UNDERFLOW_FLAG IEEE_DENORMAL
Note: The following floating-point exceptions are signalling: IEEE_UNDERFLOW_FLAG IEEE_DENORMAL
Note: The following floating-point exceptions are signalling: IEEE_UNDERFLOW_FLAG IEEE_DENORMAL
Note: The following floating-point exceptions are signalling: IEEE_UNDERFLOW_FLAG IEEE_DENORMAL
Note: The following floating-point exceptions are signalling: IEEE_UNDERFLOW_FLAG IEEE_DENORMAL
Note: The following floating-point exceptions are signalling: IEEE_UNDERFLOW_FLAG IEEE_DENORMAL
Note: The following floating-point exceptions are signalling: IEEE_UNDERFLOW_FLAG IEEE_DENORMAL
Note: The following floating-point exceptions are signalling: IEEE_UNDERFLOW_FLAG IEEE_DENORMAL
Note: The following floating-point exceptions are signalling: IEEE_UNDERFLOW_FLAG IEEE_DENORMAL
Note: The following floating-point exceptions are signalling: IEEE_UNDERFLOW_FLAG IEEE_DENORMAL
Note: The following floating-point exceptions are signalling: IEEE_UNDERFLOW_FLAG IEEE_DENORMAL
Note: The following floating-point exceptions are signalling: IEEE_UNDERFLOW_FLAG IEEE_DENORMAL
Note: The following floating-point exceptions are signalling: IEEE_UNDERFLOW_FLAG IEEE_DENORMAL
Note: The following floating-point exceptions are signalling: IEEE_UNDERFLOW_FLAG IEEE_DENORMAL
Note: The following floating-point exceptions are signalling: IEEE_DENORMAL
Note: The following floating-point exceptions are signalling: IEEE_DENORMAL
Note: The following floating-point exceptions are signalling: IEEE_DENORMAL
Note: The following floating-point exceptions are signalling: IEEE_DENORMAL
Note: The following floating-point exceptions are signalling: IEEE_DENORMAL
Note: The following floating-point exceptions are signalling: IEEE_DENORMAL
Note: The following floating-point exceptions are signalling: IEEE_DENORMAL
Note: The following floating-point exceptions are signalling: IEEE_DENORMAL
Note: The following floating-point exceptions are signalling: IEEE_DENORMAL
Note: The following floating-point exceptions are signalling: IEEE_DENORMAL
Note: The following floating-point exceptions are signalling: IEEE_UNDERFLOW_FLAG IEEE_DENORMAL
Note: The following floating-point exceptions are signalling: IEEE_DENORMAL
Note: The following floating-point exceptions are signalling: IEEE_UNDERFLOW_FLAG IEEE_DENORMAL
Note: The following floating-point exceptions are signalling: IEEE_UNDERFLOW_FLAG IEEE_DENORMAL
Note: The following floating-point exceptions are signalling: IEEE_UNDERFLOW_FLAG IEEE_DENORMAL
Note: The following floating-point exceptions are signalling: IEEE_DENORMAL
Note: The following floating-point exceptions are signalling: IEEE_UNDERFLOW_FLAG IEEE_DENORMAL
Note: The following floating-point exceptions are signalling: IEEE_UNDERFLOW_FLAG IEEE_DENORMAL
Note: The following floating-point exceptions are signalling: IEEE_UNDERFLOW_FLAG IEEE_DENORMAL
Note: The following floating-point exceptions are signalling: IEEE_DENORMAL
Note: The following floating-point exceptions are signalling: IEEE_UNDERFLOW_FLAG IEEE_DENORMAL
Note: The following floating-point exceptions are signalling: IEEE_UNDERFLOW_FLAG IEEE_DENORMAL
Note: The following floating-point exceptions are signalling: IEEE_DENORMAL
Note: The following floating-point exceptions are signalling: IEEE_UNDERFLOW_FLAG IEEE_DENORMAL
Note: The following floating-point exceptions are signalling: IEEE_UNDERFLOW_FLAG IEEE_DENORMAL
Note: The following floating-point exceptions are signalling: IEEE_DENORMAL
Note: The following floating-point exceptions are signalling: IEEE_UNDERFLOW_FLAG IEEE_DENORMAL
Note: The following floating-point exceptions are signalling: IEEE_UNDERFLOW_FLAG IEEE_DENORMAL
Note: The following floating-point exceptions are signalling: IEEE_DENORMAL
Note: The following floating-point exceptions are signalling: IEEE_UNDERFLOW_FLAG IEEE_DENORMAL
Note: The following floating-point exceptions are signalling: IEEE_DENORMAL
Note: The following floating-point exceptions are signalling: IEEE_UNDERFLOW_FLAG IEEE_DENORMAL
Note: The following floating-point exceptions are signalling: IEEE_DENORMAL
Note: The following floating-point exceptions are signalling: IEEE_UNDERFLOW_FLAG IEEE_DENORMAL
Note: The following floating-point exceptions are signalling: IEEE_DENORMAL
Note: The following floating-point exceptions are signalling: IEEE_UNDERFLOW_FLAG IEEE_DENORMAL
Note: The following floating-point exceptions are signalling: IEEE_DENORMAL
Note: The following floating-point exceptions are signalling: IEEE_DENORMAL
Note: The following floating-point exceptions are signalling: IEEE_DENORMAL
Note: The following floating-point exceptions are signalling: IEEE_DENORMAL
Note: The following floating-point exceptions are signalling: IEEE_DENORMAL
Note: The following floating-point exceptions are signalling: IEEE_DENORMAL
Note: The following floating-point exceptions are signalling: IEEE_DENORMAL
Note: The following floating-point exceptions are signalling: IEEE_DENORMAL
Note: The following floating-point exceptions are signalling: IEEE_DENORMAL
Note: The following floating-point exceptions are signalling: IEEE_DENORMAL
Note: The following floating-point exceptions are signalling: IEEE_DENORMAL
Note: The following floating-point exceptions are signalling: IEEE_DENORMAL
Note: The following floating-point exceptions are signalling: IEEE_DENORMAL
Note: The following floating-point exceptions are signalling: IEEE_UNDERFLOW_FLAG IEEE_DENORMAL
Note: The following floating-point exceptions are signalling: IEEE_UNDERFLOW_FLAG IEEE_DENORMAL
Note: The following floating-point exceptions are signalling: IEEE_UNDERFLOW_FLAG IEEE_DENORMAL
Note: The following floating-point exceptions are signalling: IEEE_UNDERFLOW_FLAG IEEE_DENORMAL
Note: The following floating-point exceptions are signalling: IEEE_UNDERFLOW_FLAG IEEE_DENORMAL
Note: The following floating-point exceptions are signalling: IEEE_UNDERFLOW_FLAG IEEE_DENORMAL
Note: The following floating-point exceptions are signalling: IEEE_UNDERFLOW_FLAG IEEE_DENORMAL
Note: The following floating-point exceptions are signalling: IEEE_UNDERFLOW_FLAG IEEE_DENORMAL
Note: The following floating-point exceptions are signalling: IEEE_UNDERFLOW_FLAG IEEE_DENORMAL
Note: The following floating-point exceptions are signalling: IEEE_UNDERFLOW_FLAG IEEE_DENORMAL
Note: The following floating-point exceptions are signalling: IEEE_UNDERFLOW_FLAG IEEE_DENORMAL
Note: The following floating-point exceptions are signalling: IEEE_UNDERFLOW_FLAG IEEE_DENORMAL
Note: The following floating-point exceptions are signalling: IEEE_UNDERFLOW_FLAG IEEE_DENORMAL
Note: The following floating-point exceptions are signalling: IEEE_UNDERFLOW_FLAG IEEE_DENORMAL
Note: The following floating-point exceptions are signalling: IEEE_UNDERFLOW_FLAG IEEE_DENORMAL
Note: The following floating-point exceptions are signalling: IEEE_UNDERFLOW_FLAG IEEE_DENORMAL
Note: The following floating-point exceptions are signalling: IEEE_UNDERFLOW_FLAG IEEE_DENORMAL
Note: The following floating-point exceptions are signalling: IEEE_UNDERFLOW_FLAG IEEE_DENORMAL
Note: The following floating-point exceptions are signalling: IEEE_UNDERFLOW_FLAG IEEE_DENORMAL
Note: The following floating-point exceptions are signalling: IEEE_UNDERFLOW_FLAG IEEE_DENORMAL
Note: The following floating-point exceptions are signalling: IEEE_UNDERFLOW_FLAG IEEE_DENORMAL
Note: The following floating-point exceptions are signalling: IEEE_UNDERFLOW_FLAG IEEE_DENORMAL
Note: The following floating-point exceptions are signalling: IEEE_UNDERFLOW_FLAG IEEE_DENORMAL
Note: The following floating-point exceptions are signalling: IEEE_UNDERFLOW_FLAG IEEE_DENORMAL
Note: The following floating-point exceptions are signalling: IEEE_UNDERFLOW_FLAG IEEE_DENORMAL
Note: The following floating-point exceptions are signalling: IEEE_UNDERFLOW_FLAG IEEE_DENORMAL
Note: The following floating-point exceptions are signalling: IEEE_UNDERFLOW_FLAG IEEE_DENORMAL
Note: The following floating-point exceptions are signalling: IEEE_UNDERFLOW_FLAG IEEE_DENORMAL
Note: The following floating-point exceptions are signalling: IEEE_UNDERFLOW_FLAG IEEE_DENORMAL
Note: The following floating-point exceptions are signalling: IEEE_UNDERFLOW_FLAG IEEE_DENORMAL
Note: The following floating-point exceptions are signalling: IEEE_UNDERFLOW_FLAG IEEE_DENORMAL
Note: The following floating-point exceptions are signalling: IEEE_UNDERFLOW_FLAG IEEE_DENORMAL
Note: The following floating-point exceptions are signalling: IEEE_UNDERFLOW_FLAG IEEE_DENORMAL
Note: The following floating-point exceptions are signalling: IEEE_UNDERFLOW_FLAG IEEE_DENORMAL
Note: The following floating-point exceptions are signalling: IEEE_UNDERFLOW_FLAG IEEE_DENORMAL
Note: The following floating-point exceptions are signalling: IEEE_UNDERFLOW_FLAG IEEE_DENORMAL
Note: The following floating-point exceptions are signalling: IEEE_UNDERFLOW_FLAG IEEE_DENORMAL
Note: The following floating-point exceptions are signalling: IEEE_UNDERFLOW_FLAG IEEE_DENORMAL
Note: The following floating-point exceptions are signalling: IEEE_UNDERFLOW_FLAG IEEE_DENORMAL
Note: The following floating-point exceptions are signalling: IEEE_UNDERFLOW_FLAG IEEE_DENORMAL
