SIRIUS 7.6.1, git hash: 9fe5844dab9874ae0d8dd285a87fd2960fd1ba31

     Program PWSCF v.7.3.1 starts on 18Dec2024 at 18:33:43 
        Git branch: ristretto
        Last git commit: 5978a25bcb3df34c6f4fdb4b798ec96683174263-dirty
        Last git commit date: Wed Dec 18 18:13:17 2024 +0200
        Last git commit subject: Merge branch 'ristretto' of https://github.com/ele

     This program is part of the open-source Quantum ESPRESSO suite
     for quantum simulation of materials; please cite
         "P. Giannozzi et al., J. Phys.:Condens. Matter 21 395502 (2009);
         "P. Giannozzi et al., J. Phys.:Condens. Matter 29 465901 (2017);
         "P. Giannozzi et al., J. Chem. Phys. 152 154105 (2020);
          URL http://www.quantum-espresso.org", 
     in publications or presentations arising from this work. More details at
     http://www.quantum-espresso.org/quote

     Parallel version (MPI & OpenMP), running on     672 processor cores
     Number of MPI processes:               112
     Threads/MPI process:                     6

     MPI processes distributed on    14 nodes
     482491 MiB available memory on the printing compute node when the environment starts

     Reading input from pw.in

     Current dimensions of program PWSCF are:
     Max number of different atomic species (ntypx) = 10
     Max number of k-points (npk) =  40000
     Max angular momentum in pseudopotentials (lmaxx) =  4

     K-points division:     npool     =     112
     Subspace diagonalization in iterative solution of the eigenvalue problem:
     a serial algorithm will be used


     G-vector sticks info
     --------------------
     sticks:   dense  smooth     PW     G-vecs:    dense   smooth      PW
     Sum       17473    6795   1823              1986367   481653   67393

     Using Slab Decomposition



     bravais-lattice index     =            0
     lattice parameter (alat)  =      28.4929  a.u.
     unit-cell volume          =   17221.4253 (a.u.)^3
     number of atoms/cell      =          144
     number of atomic types    =            2
     number of electrons       =      1152.00
     number of Kohn-Sham states=          691
     kinetic-energy cutoff     =      35.0000  Ry
     charge density cutoff     =     360.0000  Ry
     scf convergence threshold =      1.4E-06
     mixing beta               =       0.2500
     number of iterations used =            8  plain     mixing
     Exchange-correlation= SLA  PW   PBE  PBE
                           (   1   4   3   4   0   0   0)

     celldm(1)=  28.492913  celldm(2)=   0.000000  celldm(3)=   0.000000
     celldm(4)=   0.000000  celldm(5)=   0.000000  celldm(6)=   0.000000

     crystal axes: (cart. coord. in units of alat)
               a(1) = (   1.000000   0.000000   0.000000 )  
               a(2) = (  -0.000000   0.702408   0.266165 )  
               a(3) = (   0.000000   0.000000   1.059911 )  

     reciprocal axes: (cart. coord. in units 2 pi/alat)
               b(1) = (  1.000000  0.000000 -0.000000 )  
               b(2) = (  0.000000  1.423674  0.000000 )  
               b(3) = (  0.000000 -0.357513  0.943476 )  


     PseudoPot. # 1 for Si read from file:
     ./Si.pbe-n-rrkjus_psl.1.0.0.UPF
     MD5 check sum: d928fff27e2cf23ab01de9cd48acd62a
     Pseudo is Ultrasoft + core correction, Zval =  4.0
     Generated using "atomic" code by A. Dal Corso  v.5.1
     Using radial grid of 1141 points,  6 beta functions with: 
                l(1) =   0
                l(2) =   0
                l(3) =   1
                l(4) =   1
                l(5) =   2
                l(6) =   2
     Q(r) pseudized with 0 coefficients 


     PseudoPot. # 2 for Zr read from file:
     ./Zr_pbe_v1.uspp.F.UPF
     MD5 check sum: 5db81b1e868ab7776c4564c113de050b
     Pseudo is Ultrasoft + core correction, Zval = 12.0
     Generated by new atomic code, or converted to UPF format
     Using radial grid of  887 points,  6 beta functions with: 
                l(1) =   0
                l(2) =   0
                l(3) =   1
                l(4) =   1
                l(5) =   2
                l(6) =   2
     Q(r) pseudized with  6 coefficients,  rinner =    1.200   1.200   1.200
                                                       1.200   1.200

     atomic species   valence    mass     pseudopotential
     Si                4.00    28.08550     Si( 1.00)
     Zr               12.00    91.22400     Zr( 1.00)

     No symmetry found


                                    s                        frac. trans.

      isym =  1     identity                                     

 cryst.   s( 1) = (     1          0          0      )
                  (     0          1          0      )
                  (     0          0          1      )

 cart.    s( 1) = (  1.0000000  0.0000000  0.0000000 )
                  (  0.0000000  1.0000000  0.0000000 )
                  (  0.0000000  0.0000000  1.0000000 )


   Cartesian axes

     site n.     atom                  positions (alat units)
         1        Zr     tau(   1) = (   0.0600390   0.2026925   0.1823806  )
         2        Zr     tau(   2) = (   0.0583031   0.2024820   0.5294863  )
         3        Zr     tau(   3) = (   0.0645079   0.2047530   0.8867295  )
         4        Zr     tau(   4) = (   0.0674080   0.4354037   0.2688258  )
         5        Zr     tau(   5) = (   0.0622072   0.4343371   0.6257549  )
         6        Zr     tau(   6) = (   0.0610856   0.4302865   0.9769583  )
         7        Zr     tau(   7) = (   0.0610811   0.6658715   0.3514398  )
         8        Zr     tau(   8) = (   0.0600519   0.6687996   0.7138705  )
         9        Zr     tau(   9) = (   0.0677565   0.6680841   1.0631245  )
        10        Zr     tau(  10) = (   0.3113778   0.1952392   0.1767419  )
        11        Zr     tau(  11) = (   0.3087878   0.2037258   0.5329710  )
        12        Zr     tau(  12) = (   0.3102462   0.1953458   0.8847729  )
        13        Zr     tau(  13) = (   0.3126065   0.4390940   0.2649307  )
        14        Zr     tau(  14) = (   0.3133854   0.4380484   0.6168313  )
        15        Zr     tau(  15) = (   0.3116158   0.4291664   0.9726454  )
        16        Zr     tau(  16) = (   0.3111810   0.6638518   0.3535087  )
        17        Zr     tau(  17) = (   0.3173842   0.6678495   0.7071845  )
        18        Zr     tau(  18) = (   0.3149300   0.6701685   1.0581046  )
        19        Zr     tau(  19) = (   0.5600427   0.2043708   0.1804887  )
        20        Zr     tau(  20) = (   0.5587581   0.1969489   0.5337247  )
        21        Zr     tau(  21) = (   0.5621030   0.1973213   0.8895160  )
        22        Zr     tau(  22) = (   0.5596873   0.4387258   0.2678280  )
        23        Zr     tau(  23) = (   0.5674439   0.4345514   0.6223639  )
        24        Zr     tau(  24) = (   0.5618754   0.4293549   0.9756393  )
        25        Zr     tau(  25) = (   0.5615434   0.6706228   0.3511473  )
        26        Zr     tau(  26) = (   0.5670913   0.6662007   0.7077045  )
        27        Zr     tau(  27) = (   0.5673904   0.6680850   1.0645144  )
        28        Zr     tau(  28) = (   0.8116062   0.1949331   0.1779607  )
        29        Zr     tau(  29) = (   0.8134797   0.2046024   0.5290351  )
        30        Zr     tau(  30) = (   0.8097120   0.1974535   0.8814129  )
        31        Zr     tau(  31) = (   0.8151114   0.4367118   0.2710792  )
        32        Zr     tau(  32) = (   0.8175841   0.4329118   0.6211190  )
        33        Zr     tau(  33) = (   0.8173180   0.4324095   0.9725577  )
        34        Zr     tau(  34) = (   0.8140145   0.6635915   0.3542615  )
        35        Zr     tau(  35) = (   0.8090750   0.6653596   0.7065157  )
        36        Zr     tau(  36) = (   0.8084730   0.6710923   1.0603009  )
        37        Zr     tau(  37) = (   0.1918300   0.0309677   0.2630997  )
        38        Zr     tau(  38) = (   0.1831938   0.0340586   0.6137972  )
        39        Zr     tau(  39) = (   0.1858369   0.0289871   0.9696391  )
        40        Zr     tau(  40) = (   0.1906934   0.2645613   0.3545986  )
        41        Zr     tau(  41) = (   0.1882438   0.2726982   0.7082123  )
        42        Zr     tau(  42) = (   0.1842574   0.2715251   1.0564493  )
        43        Zr     tau(  43) = (   0.1920679   0.5034189   0.4434767  )
        44        Zr     tau(  44) = (   0.1916450   0.5021196   0.7976484  )
        45        Zr     tau(  45) = (   0.1853314   0.5001343   1.1432951  )
        46        Zr     tau(  46) = (   0.4350348   0.0309386   0.2600237  )
        47        Zr     tau(  47) = (   0.4353431   0.0382541   0.6145827  )
        48        Zr     tau(  48) = (   0.4377477   0.0321026   0.9751508  )
        49        Zr     tau(  49) = (   0.4343654   0.2690207   0.3565016  )
        50        Zr     tau(  50) = (   0.4427659   0.2683250   0.7049978  )
        51        Zr     tau(  51) = (   0.4333277   0.2707302   1.0569257  )
        52        Zr     tau(  52) = (   0.4401636   0.5041364   0.4452262  )
        53        Zr     tau(  53) = (   0.4417913   0.4992727   0.7952207  )
        54        Zr     tau(  54) = (   0.4385574   0.5028940   1.1424817  )
        55        Zr     tau(  55) = (   0.6828114   0.0361165   0.2648828  )
        56        Zr     tau(  56) = (   0.6878913   0.0392854   0.6169316  )
        57        Zr     tau(  57) = (   0.6915312   0.0308610   0.9716433  )
        58        Zr     tau(  58) = (   0.6846103   0.2724963   0.3514552  )
        59        Zr     tau(  59) = (   0.6831040   0.2697293   0.7081218  )
        60        Zr     tau(  60) = (   0.6869500   0.2715959   1.0549418  )
        61        Zr     tau(  61) = (   0.6854225   0.4975259   0.4422048  )
        62        Zr     tau(  62) = (   0.6865761   0.4978236   0.7915895  )
        63        Zr     tau(  63) = (   0.6879017   0.5013437   1.1528525  )
        64        Zr     tau(  64) = (   0.9359630   0.0356472   0.2683945  )
        65        Zr     tau(  65) = (   0.9387762   0.0338075   0.6220429  )
        66        Zr     tau(  66) = (   0.9420886   0.0327115   0.9725346  )
        67        Zr     tau(  67) = (   0.9359904   0.2712041   0.3482617  )
        68        Zr     tau(  68) = (   0.9331142   0.2653169   0.7066188  )
        69        Zr     tau(  69) = (   0.9327946   0.2660315   1.0601887  )
        70        Zr     tau(  70) = (   0.9382599   0.5075067   0.4407046  )
        71        Zr     tau(  71) = (   0.9337460   0.5050385   0.7918150  )
        72        Zr     tau(  72) = (   0.9404354   0.4997159   1.1512529  )
        73        Si     tau(  73) = (   0.1854727   0.0951727   0.0894206  )
        74        Si     tau(  74) = (   0.1852636   0.0972865   0.4415274  )
        75        Si     tau(  75) = (   0.1834795   0.0958489   0.8013862  )
        76        Si     tau(  76) = (   0.1853382   0.3305864   0.1858323  )
        77        Si     tau(  77) = (   0.1897976   0.3375327   0.5339212  )
        78        Si     tau(  78) = (   0.1849142   0.3355126   0.8919351  )
        79        Si     tau(  79) = (   0.1834036   0.5644577   0.2680228  )
        80        Si     tau(  80) = (   0.1905032   0.5648738   0.6274037  )
        81        Si     tau(  81) = (   0.1888088   0.5709479   0.9801378  )
        82        Si     tau(  82) = (   0.4368696   0.0944120   0.0897676  )
        83        Si     tau(  83) = (   0.4358541   0.0991754   0.4411030  )
        84        Si     tau(  84) = (   0.4390806   0.0952302   0.8031139  )
        85        Si     tau(  85) = (   0.4426835   0.3339531   0.1813312  )
        86        Si     tau(  86) = (   0.4322744   0.3319412   0.5346575  )
        87        Si     tau(  87) = (   0.4335915   0.3298456   0.8901263  )
        88        Si     tau(  88) = (   0.4419337   0.5666389   0.2731595  )
        89        Si     tau(  89) = (   0.4379664   0.5620426   0.6216735  )
        90        Si     tau(  90) = (   0.4330794   0.5657111   0.9742244  )
        91        Si     tau(  91) = (   0.6890057   0.0936691   0.0935478  )
        92        Si     tau(  92) = (   0.6828282   0.0979583   0.4485270  )
        93        Si     tau(  93) = (   0.6884286   0.0954663   0.7953296  )
        94        Si     tau(  94) = (   0.6870217   0.3359881   0.1772986  )
        95        Si     tau(  95) = (   0.6863310   0.3363693   0.5386326  )
        96        Si     tau(  96) = (   0.6870349   0.3289487   0.8917263  )
        97        Si     tau(  97) = (   0.6855109   0.5718237   0.2711017  )
        98        Si     tau(  98) = (   0.6839106   0.5673648   0.6274563  )
        99        Si     tau(  99) = (   0.6832820   0.5639112   0.9778536  )
       100        Si     tau( 100) = (   0.9329077   0.0960546   0.0926241  )
       101        Si     tau( 101) = (   0.9410352   0.1026450   0.4457677  )
       102        Si     tau( 102) = (   0.9371618   0.0953743   0.7953121  )
       103        Si     tau( 103) = (   0.9415713   0.3336106   0.1848572  )
       104        Si     tau( 104) = (   0.9427939   0.3324955   0.5347616  )
       105        Si     tau( 105) = (   0.9424163   0.3309423   0.8875353  )
       106        Si     tau( 106) = (   0.9415326   0.5696694   0.2681111  )
       107        Si     tau( 107) = (   0.9369621   0.5671012   0.6288453  )
       108        Si     tau( 108) = (   0.9408998   0.5709975   0.9762198  )
       109        Si     tau( 109) = (   0.0643516   0.1399995   0.3472402  )
       110        Si     tau( 110) = (   0.0671943   0.1378804   0.7028491  )
       111        Si     tau( 111) = (   0.0595634   0.1364256   1.0515049  )
       112        Si     tau( 112) = (   0.0601707   0.3667561   0.4417753  )
       113        Si     tau( 113) = (   0.0601717   0.3684171   0.7958556  )
       114        Si     tau( 114) = (   0.0638963   0.3729172   1.1484025  )
       115        Si     tau( 115) = (   0.0591624   0.5998048   0.5252993  )
       116        Si     tau( 116) = (   0.0593789   0.6049881   0.8840441  )
       117        Si     tau( 117) = (   0.0610169   0.6072647   1.2296114  )
       118        Si     tau( 118) = (   0.3139232   0.1353840   0.3543147  )
       119        Si     tau( 119) = (   0.3122205   0.1331835   0.7073051  )
       120        Si     tau( 120) = (   0.3119578   0.1333452   1.0606589  )
       121        Si     tau( 121) = (   0.3105962   0.3680858   0.4426509  )
       122        Si     tau( 122) = (   0.3168269   0.3717484   0.7890673  )
       123        Si     tau( 123) = (   0.3171072   0.3671991   1.1456800  )
       124        Si     tau( 124) = (   0.3174362   0.6055580   0.5260593  )
       125        Si     tau( 125) = (   0.3170246   0.6012318   0.8812042  )
       126        Si     tau( 126) = (   0.3158623   0.6065204   1.2362386  )
       127        Si     tau( 127) = (   0.5588614   0.1354941   0.3530647  )
       128        Si     tau( 128) = (   0.5619513   0.1390788   0.6986932  )
       129        Si     tau( 129) = (   0.5609879   0.1372023   1.0605781  )
       130        Si     tau( 130) = (   0.5611161   0.3659318   0.4415336  )
       131        Si     tau( 131) = (   0.5624009   0.3650572   0.7940219  )
       132        Si     tau( 132) = (   0.5665274   0.3704686   1.1478667  )
       133        Si     tau( 133) = (   0.5616936   0.5986345   0.5253014  )
       134        Si     tau( 134) = (   0.5612337   0.6044914   0.8850421  )
       135        Si     tau( 135) = (   0.5672288   0.6022856   1.2351983  )
       136        Si     tau( 136) = (   0.8113615   0.1304177   0.3478920  )
       137        Si     tau( 137) = (   0.8166657   0.1371594   0.7053021  )
       138        Si     tau( 138) = (   0.8100480   0.1308615   1.0546895  )
       139        Si     tau( 139) = (   0.8128208   0.3728441   0.4337645  )
       140        Si     tau( 140) = (   0.8095092   0.3666561   0.7945047  )
       141        Si     tau( 141) = (   0.8127213   0.3651186   1.1474154  )
       142        Si     tau( 142) = (   0.8127679   0.6003724   0.5225253  )
       143        Si     tau( 143) = (   0.8149392   0.6072367   0.8830673  )
       144        Si     tau( 144) = (   0.8094511   0.6071092   1.2305604  )

   Crystallographic axes

     site n.     atom                  positions (cryst. coord.)
         1        Zr     tau(   1) = (  0.0600390  0.2885682  0.0996065  )
         2        Zr     tau(   2) = (  0.0583031  0.2882685  0.4271675  )
         3        Zr     tau(   3) = (  0.0645079  0.2915016  0.7634059  )
         4        Zr     tau(   4) = (  0.0674080  0.6198730  0.0979681  )
         5        Zr     tau(   5) = (  0.0622072  0.6183546  0.4351034  )
         6        Zr     tau(   6) = (  0.0610856  0.6125879  0.7679034  )
         7        Zr     tau(   7) = (  0.0610811  0.9479843  0.0935171  )
         8        Zr     tau(   8) = (  0.0600519  0.9521529  0.4344149  )
         9        Zr     tau(   9) = (  0.0677565  0.9511343  0.7641833  )
        10        Zr     tau(  10) = (  0.3113778  0.2779571  0.0969511  )
        11        Zr     tau(  11) = (  0.3087878  0.2900392  0.4300106  )
        12        Zr     tau(  12) = (  0.3102462  0.2781088  0.7649231  )
        13        Zr     tau(  13) = (  0.3126065  0.6251269  0.0929738  )
        14        Zr     tau(  14) = (  0.3133854  0.6236382  0.4253573  )
        15        Zr     tau(  15) = (  0.3116158  0.6109932  0.7642347  )
        16        Zr     tau(  16) = (  0.3111810  0.9451089  0.0961911  )
        17        Zr     tau(  17) = (  0.3173842  0.9508003  0.4284465  )
        18        Zr     tau(  18) = (  0.3149300  0.9541018  0.7587021  )
        19        Zr     tau(  19) = (  0.5600427  0.2909575  0.0972214  )
        20        Zr     tau(  20) = (  0.5587581  0.2803911  0.4331445  )
        21        Zr     tau(  21) = (  0.5621030  0.2809213  0.7686918  )
        22        Zr     tau(  22) = (  0.5596873  0.6246028  0.0958389  )
        23        Zr     tau(  23) = (  0.5674439  0.6186597  0.4318275  )
        24        Zr     tau(  24) = (  0.5618754  0.6112616  0.7669920  )
        25        Zr     tau(  25) = (  0.5615434  0.9547485  0.0915426  )
        26        Zr     tau(  26) = (  0.5670913  0.9484529  0.4295266  )
        27        Zr     tau(  27) = (  0.5673904  0.9511355  0.7654944  )
        28        Zr     tau(  28) = (  0.8116062  0.2775212  0.0982105  )
        29        Zr     tau(  29) = (  0.8134797  0.2912872  0.4259838  )
        30        Zr     tau(  30) = (  0.8097120  0.2811095  0.7609995  )
        31        Zr     tau(  31) = (  0.8151114  0.6217354  0.0996264  )
        32        Zr     tau(  32) = (  0.8175841  0.6163255  0.4312391  )
        33        Zr     tau(  33) = (  0.8173180  0.6156104  0.7629925  )
        34        Zr     tau(  34) = (  0.8140145  0.9447382  0.0969944  )
        35        Zr     tau(  35) = (  0.8090750  0.9472554  0.4287056  )
        36        Zr     tau(  36) = (  0.8084730  0.9554169  0.7604439  )
        37        Zr     tau(  37) = (  0.1918300  0.0440880  0.2371568  )
        38        Zr     tau(  38) = (  0.1831938  0.0484883  0.5669264  )
        39        Zr     tau(  39) = (  0.1858369  0.0412681  0.9044678  )
        40        Zr     tau(  40) = (  0.1906934  0.3766492  0.2399711  )
        41        Zr     tau(  41) = (  0.1882438  0.3882334  0.5706880  )
        42        Zr     tau(  42) = (  0.1842574  0.3865633  0.8996605  )
        43        Zr     tau(  43) = (  0.1920679  0.7167046  0.2384307  )
        44        Zr     tau(  44) = (  0.1916450  0.7148548  0.5730476  )
        45        Zr     tau(  45) = (  0.1853314  0.7120284  0.8998667  )
        46        Zr     tau(  46) = (  0.4350348  0.0440465  0.2342652  )
        47        Zr     tau(  47) = (  0.4353431  0.0544614  0.5661676  )
        48        Zr     tau(  48) = (  0.4377477  0.0457036  0.9085541  )
        49        Zr     tau(  49) = (  0.4343654  0.3829979  0.2401722  )
        50        Zr     tau(  50) = (  0.4427659  0.3820074  0.5692187  )
        51        Zr     tau(  51) = (  0.4333277  0.3854317  0.9003942  )
        52        Zr     tau(  52) = (  0.4401636  0.7177261  0.2398248  )
        53        Zr     tau(  53) = (  0.4417913  0.7108018  0.5717749  )
        54        Zr     tau(  54) = (  0.4385574  0.7159573  0.8981126  )
        55        Zr     tau(  55) = (  0.6828114  0.0514181  0.2369984  )
        56        Zr     tau(  56) = (  0.6878913  0.0559297  0.5680150  )
        57        Zr     tau(  57) = (  0.6915312  0.0439360  0.9056887  )
        58        Zr     tau(  58) = (  0.6846103  0.3879460  0.2341685  )
        59        Zr     tau(  59) = (  0.6831040  0.3840067  0.5716640  )
        60        Zr     tau(  60) = (  0.6869500  0.3866642  0.8982129  )
        61        Zr     tau(  61) = (  0.6854225  0.7083149  0.2393375  )
        62        Zr     tau(  62) = (  0.6865761  0.7087387  0.5688670  )
        63        Zr     tau(  63) = (  0.6879017  0.7137502  0.9084515  )
        64        Zr     tau(  64) = (  0.9359630  0.0507500  0.2404794  )
        65        Zr     tau(  65) = (  0.9387762  0.0481308  0.5747958  )
        66        Zr     tau(  66) = (  0.9420886  0.0465705  0.9058681  )
        67        Zr     tau(  67) = (  0.9359904  0.3861063  0.2316175  )
        68        Zr     tau(  68) = (  0.9331142  0.3777248  0.5718234  )
        69        Zr     tau(  69) = (  0.9327946  0.3787422  0.9051527  )
        70        Zr     tau(  70) = (  0.9382599  0.7225243  0.2343538  )
        71        Zr     tau(  71) = (  0.9337460  0.7190103  0.5665004  )
        72        Zr     tau(  72) = (  0.9404354  0.7114327  0.9075243  )
        73        Si     tau(  73) = (  0.1854727  0.1354949  0.0503407  )
        74        Si     tau(  74) = (  0.1852636  0.1385043  0.3817892  )
        75        Si     tau(  75) = (  0.1834795  0.1364576  0.7218212  )
        76        Si     tau(  76) = (  0.1853382  0.4706474  0.0571393  )
        77        Si     tau(  77) = (  0.1897976  0.4805367  0.3830694  )
        78        Si     tau(  78) = (  0.1849142  0.4776607  0.7215690  )
        79        Si     tau(  79) = (  0.1834036  0.8036039  0.0510720  )
        80        Si     tau(  80) = (  0.1905032  0.8041964  0.3899904  )
        81        Si     tau(  81) = (  0.1888088  0.8128439  0.7206149  )
        82        Si     tau(  82) = (  0.4368696  0.1344119  0.0509400  )
        83        Si     tau(  83) = (  0.4358541  0.1411934  0.3807135  )
        84        Si     tau(  84) = (  0.4390806  0.1355768  0.7236725  )
        85        Si     tau(  85) = (  0.4426835  0.4754405  0.0516890  )
        86        Si     tau(  86) = (  0.4322744  0.4725762  0.3857631  )
        87        Si     tau(  87) = (  0.4335915  0.4695927  0.7218885  )
        88        Si     tau(  88) = (  0.4419337  0.8067093  0.0551385  )
        89        Si     tau(  89) = (  0.4379664  0.8001656  0.3855963  )
        90        Si     tau(  90) = (  0.4330794  0.8053885  0.7169080  )
        91        Si     tau(  91) = (  0.6890057  0.1333543  0.0547721  )
        92        Si     tau(  92) = (  0.6828282  0.1394607  0.3881530  )
        93        Si     tau(  93) = (  0.6884286  0.1359129  0.7162438  )
        94        Si     tau(  94) = (  0.6870217  0.4783376  0.0471567  )
        95        Si     tau(  95) = (  0.6863310  0.4788804  0.3879304  )
        96        Si     tau(  96) = (  0.6870349  0.4683158  0.7237187  )
        97        Si     tau(  97) = (  0.6855109  0.8140907  0.0513434  )
        98        Si     tau(  98) = (  0.6839106  0.8077428  0.3891495  )
        99        Si     tau(  99) = (  0.6832820  0.8028260  0.7209756  )
       100        Si     tau( 100) = (  0.9329077  0.1367505  0.0530478  )
       101        Si     tau( 101) = (  0.9410352  0.1461331  0.3838741  )
       102        Si     tau( 102) = (  0.9371618  0.1357819  0.7162602  )
       103        Si     tau( 103) = (  0.9415713  0.4749528  0.0551381  )
       104        Si     tau( 104) = (  0.9427939  0.4733654  0.3856631  )
       105        Si     tau( 105) = (  0.9424163  0.4711541  0.7190518  )
       106        Si     tau( 106) = (  0.9415326  0.8110237  0.0492920  )
       107        Si     tau( 107) = (  0.9369621  0.8073674  0.3905542  )
       108        Si     tau( 108) = (  0.9408998  0.8129145  0.7169007  )
       109        Si     tau( 109) = (  0.0643516  0.1993136  0.2775611  )
       110        Si     tau( 110) = (  0.0671943  0.1962969  0.6138271  )
       111        Si     tau( 111) = (  0.0595634  0.1942256  0.9432955  )
       112        Si     tau( 112) = (  0.0601707  0.5221412  0.2856842  )
       113        Si     tau( 113) = (  0.0601717  0.5245060  0.6191565  )
       114        Si     tau( 114) = (  0.0638963  0.5309127  0.9501671  )
       115        Si     tau( 115) = (  0.0591624  0.8539267  0.2811691  )
       116        Si     tau( 116) = (  0.0593789  0.8613061  0.6177830  )
       117        Si     tau( 117) = (  0.0610169  0.8645473  0.9430035  )
       118        Si     tau( 118) = (  0.3139232  0.1927428  0.2858858  )
       119        Si     tau( 119) = (  0.3122205  0.1896099  0.6197104  )
       120        Si     tau( 120) = (  0.3119578  0.1898401  0.9530334  )
       121        Si     tau( 121) = (  0.3105962  0.5240344  0.2860349  )
       122        Si     tau( 122) = (  0.3168269  0.5292487  0.6115609  )
       123        Si     tau( 123) = (  0.3171072  0.5227719  0.9496428  )
       124        Si     tau( 124) = (  0.3174362  0.8621174  0.2798293  )
       125        Si     tau( 125) = (  0.3170246  0.8559584  0.6164466  )
       126        Si     tau( 126) = (  0.3158623  0.8634876  0.9495222  )
       127        Si     tau( 127) = (  0.5588614  0.1928995  0.2846671  )
       128        Si     tau( 128) = (  0.5619513  0.1980029  0.6094776  )
       129        Si     tau( 129) = (  0.5609879  0.1953314  0.9515781  )
       130        Si     tau( 130) = (  0.5611161  0.5209678  0.2857508  )
       131        Si     tau( 131) = (  0.5624009  0.5197226  0.6186277  )
       132        Si     tau( 132) = (  0.5665274  0.5274267  0.9505371  )
       133        Si     tau( 133) = (  0.5616936  0.8522606  0.2815894  )
       134        Si     tau( 134) = (  0.5612337  0.8605990  0.6189022  )
       135        Si     tau( 135) = (  0.5672288  0.8574585  0.9500547  )
       136        Si     tau( 136) = (  0.8113615  0.1856724  0.2816017  )
       137        Si     tau( 137) = (  0.8166657  0.1952703  0.6163992  )
       138        Si     tau( 138) = (  0.8100480  0.1863042  0.9482893  )
       139        Si     tau( 139) = (  0.8128208  0.5308086  0.2759497  )
       140        Si     tau( 140) = (  0.8095092  0.5219989  0.6185116  )
       141        Si     tau( 141) = (  0.8127213  0.5198099  0.9520239  )
       142        Si     tau( 142) = (  0.8127679  0.8547348  0.2783490  )
       143        Si     tau( 143) = (  0.8149392  0.8645074  0.6160575  )
       144        Si     tau( 144) = (  0.8094511  0.8643258  0.9439544  )

     number of k points=   112  Marzari-Vanderbilt smearing, width (Ry)=  0.0200
                       cart. coord. in units 2pi/alat
        k(    1) = (   0.0000000   0.0000000   0.0000000), wk =   0.0092593
        k(    2) = (   0.0000000  -0.0595855   0.1572460), wk =   0.0185185
        k(    3) = (   0.0000000  -0.1191710   0.3144919), wk =   0.0185185
        k(    4) = (   0.0000000   0.1787566  -0.4717379), wk =   0.0092593
        k(    5) = (   0.0000000   0.2372791   0.0000000), wk =   0.0185185
        k(    6) = (   0.0000000   0.1776935   0.1572460), wk =   0.0185185
        k(    7) = (   0.0000000   0.1181080   0.3144919), wk =   0.0185185
        k(    8) = (   0.0000000   0.4160356  -0.4717379), wk =   0.0185185
        k(    9) = (   0.0000000   0.3564501  -0.3144919), wk =   0.0185185
        k(   10) = (   0.0000000   0.2968646  -0.1572460), wk =   0.0185185
        k(   11) = (   0.0000000   0.4745581   0.0000000), wk =   0.0185185
        k(   12) = (   0.0000000   0.4149726   0.1572460), wk =   0.0185185
        k(   13) = (   0.0000000   0.3553871   0.3144919), wk =   0.0185185
        k(   14) = (   0.0000000   0.6533147  -0.4717379), wk =   0.0185185
        k(   15) = (   0.0000000   0.5937292  -0.3144919), wk =   0.0185185
        k(   16) = (   0.0000000   0.5341437  -0.1572460), wk =   0.0185185
        k(   17) = (   0.0000000  -0.7118372   0.0000000), wk =   0.0092593
        k(   18) = (   0.0000000  -0.7714227   0.1572460), wk =   0.0185185
        k(   19) = (   0.0000000  -0.8310083   0.3144919), wk =   0.0185185
        k(   20) = (   0.0000000  -0.5330806  -0.4717379), wk =   0.0092593
        k(   21) = (   0.1666667   0.0000000   0.0000000), wk =   0.0185185
        k(   22) = (   0.1666667  -0.0595855   0.1572460), wk =   0.0185185
        k(   23) = (   0.1666667  -0.1191710   0.3144919), wk =   0.0185185
        k(   24) = (   0.1666667   0.1787566  -0.4717379), wk =   0.0185185
        k(   25) = (   0.1666667   0.2372791   0.0000000), wk =   0.0185185
        k(   26) = (   0.1666667   0.1776935   0.1572460), wk =   0.0185185
        k(   27) = (   0.1666667   0.1181080   0.3144919), wk =   0.0185185
        k(   28) = (   0.1666667   0.4160356  -0.4717379), wk =   0.0185185
        k(   29) = (   0.1666667   0.3564501  -0.3144919), wk =   0.0185185
        k(   30) = (   0.1666667   0.2968646  -0.1572460), wk =   0.0185185
        k(   31) = (   0.1666667   0.4745581   0.0000000), wk =   0.0185185
        k(   32) = (   0.1666667   0.4149726   0.1572460), wk =   0.0185185
        k(   33) = (   0.1666667   0.3553871   0.3144919), wk =   0.0185185
        k(   34) = (   0.1666667   0.6533147  -0.4717379), wk =   0.0185185
        k(   35) = (   0.1666667   0.5937292  -0.3144919), wk =   0.0185185
        k(   36) = (   0.1666667   0.5341437  -0.1572460), wk =   0.0185185
        k(   37) = (   0.1666667  -0.7118372   0.0000000), wk =   0.0185185
        k(   38) = (   0.1666667  -0.7714227   0.1572460), wk =   0.0185185
        k(   39) = (   0.1666667  -0.8310083   0.3144919), wk =   0.0185185
        k(   40) = (   0.1666667  -0.5330806  -0.4717379), wk =   0.0185185
        k(   41) = (   0.3333333   0.0000000   0.0000000), wk =   0.0185185
        k(   42) = (   0.3333333  -0.0595855   0.1572460), wk =   0.0185185
        k(   43) = (   0.3333333  -0.1191710   0.3144919), wk =   0.0185185
        k(   44) = (   0.3333333   0.1787566  -0.4717379), wk =   0.0185185
        k(   45) = (   0.3333333   0.2372791   0.0000000), wk =   0.0185185
        k(   46) = (   0.3333333   0.1776935   0.1572460), wk =   0.0185185
        k(   47) = (   0.3333333   0.1181080   0.3144919), wk =   0.0185185
        k(   48) = (   0.3333333   0.4160356  -0.4717379), wk =   0.0185185
        k(   49) = (   0.3333333   0.3564501  -0.3144919), wk =   0.0185185
        k(   50) = (   0.3333333   0.2968646  -0.1572460), wk =   0.0185185
        k(   51) = (   0.3333333   0.4745581   0.0000000), wk =   0.0185185
        k(   52) = (   0.3333333   0.4149726   0.1572460), wk =   0.0185185
        k(   53) = (   0.3333333   0.3553871   0.3144919), wk =   0.0185185
        k(   54) = (   0.3333333   0.6533147  -0.4717379), wk =   0.0185185
        k(   55) = (   0.3333333   0.5937292  -0.3144919), wk =   0.0185185
        k(   56) = (   0.3333333   0.5341437  -0.1572460), wk =   0.0185185
        k(   57) = (   0.3333333  -0.7118372   0.0000000), wk =   0.0185185
        k(   58) = (   0.3333333  -0.7714227   0.1572460), wk =   0.0185185
        k(   59) = (   0.3333333  -0.8310083   0.3144919), wk =   0.0185185
        k(   60) = (   0.3333333  -0.5330806  -0.4717379), wk =   0.0185185
        k(   61) = (  -0.5000000   0.0000000   0.0000000), wk =   0.0092593
        k(   62) = (  -0.5000000  -0.0595855   0.1572460), wk =   0.0185185
        k(   63) = (  -0.5000000  -0.1191710   0.3144919), wk =   0.0185185
        k(   64) = (  -0.5000000   0.1787566  -0.4717379), wk =   0.0092593
        k(   65) = (  -0.5000000   0.2372791   0.0000000), wk =   0.0185185
        k(   66) = (  -0.5000000   0.1776935   0.1572460), wk =   0.0185185
        k(   67) = (  -0.5000000   0.1181080   0.3144919), wk =   0.0185185
        k(   68) = (  -0.5000000   0.4160356  -0.4717379), wk =   0.0185185
        k(   69) = (  -0.5000000   0.3564501  -0.3144919), wk =   0.0185185
        k(   70) = (  -0.5000000   0.2968646  -0.1572460), wk =   0.0185185
        k(   71) = (  -0.5000000   0.4745581   0.0000000), wk =   0.0185185
        k(   72) = (  -0.5000000   0.4149726   0.1572460), wk =   0.0185185
        k(   73) = (  -0.5000000   0.3553871   0.3144919), wk =   0.0185185
        k(   74) = (  -0.5000000   0.6533147  -0.4717379), wk =   0.0185185
        k(   75) = (  -0.5000000   0.5937292  -0.3144919), wk =   0.0185185
        k(   76) = (  -0.5000000   0.5341437  -0.1572460), wk =   0.0185185
        k(   77) = (  -0.5000000  -0.7118372   0.0000000), wk =   0.0092593
        k(   78) = (  -0.5000000  -0.7714227   0.1572460), wk =   0.0185185
        k(   79) = (  -0.5000000  -0.8310083   0.3144919), wk =   0.0185185
        k(   80) = (  -0.5000000  -0.5330806  -0.4717379), wk =   0.0092593
        k(   81) = (   0.1666667   0.0595855  -0.1572460), wk =   0.0185185
        k(   82) = (   0.1666667   0.1191710  -0.3144919), wk =   0.0185185
        k(   83) = (   0.1666667  -0.2372791   0.0000000), wk =   0.0185185
        k(   84) = (   0.1666667  -0.1776935  -0.1572460), wk =   0.0185185
        k(   85) = (   0.1666667  -0.1181080  -0.3144919), wk =   0.0185185
        k(   86) = (   0.1666667  -0.4160356   0.4717379), wk =   0.0185185
        k(   87) = (   0.1666667  -0.3564501   0.3144919), wk =   0.0185185
        k(   88) = (   0.1666667  -0.2968646   0.1572460), wk =   0.0185185
        k(   89) = (   0.1666667  -0.4745581   0.0000000), wk =   0.0185185
        k(   90) = (   0.1666667  -0.4149726  -0.1572460), wk =   0.0185185
        k(   91) = (   0.1666667  -0.3553871  -0.3144919), wk =   0.0185185
        k(   92) = (   0.1666667  -0.6533147   0.4717379), wk =   0.0185185
        k(   93) = (   0.1666667  -0.5937292   0.3144919), wk =   0.0185185
        k(   94) = (   0.1666667  -0.5341437   0.1572460), wk =   0.0185185
        k(   95) = (   0.1666667   0.7714227  -0.1572460), wk =   0.0185185
        k(   96) = (   0.1666667   0.8310083  -0.3144919), wk =   0.0185185
        k(   97) = (   0.3333333   0.0595855  -0.1572460), wk =   0.0185185
        k(   98) = (   0.3333333   0.1191710  -0.3144919), wk =   0.0185185
        k(   99) = (   0.3333333  -0.2372791   0.0000000), wk =   0.0185185
        k(  100) = (   0.3333333  -0.1776935  -0.1572460), wk =   0.0185185
        k(  101) = (   0.3333333  -0.1181080  -0.3144919), wk =   0.0185185
        k(  102) = (   0.3333333  -0.4160356   0.4717379), wk =   0.0185185
        k(  103) = (   0.3333333  -0.3564501   0.3144919), wk =   0.0185185
        k(  104) = (   0.3333333  -0.2968646   0.1572460), wk =   0.0185185
        k(  105) = (   0.3333333  -0.4745581   0.0000000), wk =   0.0185185
        k(  106) = (   0.3333333  -0.4149726  -0.1572460), wk =   0.0185185
        k(  107) = (   0.3333333  -0.3553871  -0.3144919), wk =   0.0185185
        k(  108) = (   0.3333333  -0.6533147   0.4717379), wk =   0.0185185
        k(  109) = (   0.3333333  -0.5937292   0.3144919), wk =   0.0185185
        k(  110) = (   0.3333333  -0.5341437   0.1572460), wk =   0.0185185
        k(  111) = (   0.3333333   0.7714227  -0.1572460), wk =   0.0185185
        k(  112) = (   0.3333333   0.8310083  -0.3144919), wk =   0.0185185

                       cryst. coord.
        k(    1) = (   0.0000000   0.0000000   0.0000000), wk =   0.0092593
        k(    2) = (   0.0000000   0.0000000   0.1666667), wk =   0.0185185
        k(    3) = (   0.0000000   0.0000000   0.3333333), wk =   0.0185185
        k(    4) = (   0.0000000   0.0000000  -0.5000000), wk =   0.0092593
        k(    5) = (   0.0000000   0.1666667   0.0000000), wk =   0.0185185
        k(    6) = (   0.0000000   0.1666667   0.1666667), wk =   0.0185185
        k(    7) = (   0.0000000   0.1666667   0.3333333), wk =   0.0185185
        k(    8) = (   0.0000000   0.1666667  -0.5000000), wk =   0.0185185
        k(    9) = (   0.0000000   0.1666667  -0.3333333), wk =   0.0185185
        k(   10) = (   0.0000000   0.1666667  -0.1666667), wk =   0.0185185
        k(   11) = (   0.0000000   0.3333333   0.0000000), wk =   0.0185185
        k(   12) = (   0.0000000   0.3333333   0.1666667), wk =   0.0185185
        k(   13) = (   0.0000000   0.3333333   0.3333333), wk =   0.0185185
        k(   14) = (   0.0000000   0.3333333  -0.5000000), wk =   0.0185185
        k(   15) = (   0.0000000   0.3333333  -0.3333333), wk =   0.0185185
        k(   16) = (   0.0000000   0.3333333  -0.1666667), wk =   0.0185185
        k(   17) = (   0.0000000  -0.5000000   0.0000000), wk =   0.0092593
        k(   18) = (   0.0000000  -0.5000000   0.1666667), wk =   0.0185185
        k(   19) = (   0.0000000  -0.5000000   0.3333333), wk =   0.0185185
        k(   20) = (   0.0000000  -0.5000000  -0.5000000), wk =   0.0092593
        k(   21) = (   0.1666667   0.0000000   0.0000000), wk =   0.0185185
        k(   22) = (   0.1666667   0.0000000   0.1666667), wk =   0.0185185
        k(   23) = (   0.1666667   0.0000000   0.3333333), wk =   0.0185185
        k(   24) = (   0.1666667   0.0000000  -0.5000000), wk =   0.0185185
        k(   25) = (   0.1666667   0.1666667   0.0000000), wk =   0.0185185
        k(   26) = (   0.1666667   0.1666667   0.1666667), wk =   0.0185185
        k(   27) = (   0.1666667   0.1666667   0.3333333), wk =   0.0185185
        k(   28) = (   0.1666667   0.1666667  -0.5000000), wk =   0.0185185
        k(   29) = (   0.1666667   0.1666667  -0.3333333), wk =   0.0185185
        k(   30) = (   0.1666667   0.1666667  -0.1666667), wk =   0.0185185
        k(   31) = (   0.1666667   0.3333333   0.0000000), wk =   0.0185185
        k(   32) = (   0.1666667   0.3333333   0.1666667), wk =   0.0185185
        k(   33) = (   0.1666667   0.3333333   0.3333333), wk =   0.0185185
        k(   34) = (   0.1666667   0.3333333  -0.5000000), wk =   0.0185185
        k(   35) = (   0.1666667   0.3333333  -0.3333333), wk =   0.0185185
        k(   36) = (   0.1666667   0.3333333  -0.1666667), wk =   0.0185185
        k(   37) = (   0.1666667  -0.5000000   0.0000000), wk =   0.0185185
        k(   38) = (   0.1666667  -0.5000000   0.1666667), wk =   0.0185185
        k(   39) = (   0.1666667  -0.5000000   0.3333333), wk =   0.0185185
        k(   40) = (   0.1666667  -0.5000000  -0.5000000), wk =   0.0185185
        k(   41) = (   0.3333333   0.0000000   0.0000000), wk =   0.0185185
        k(   42) = (   0.3333333   0.0000000   0.1666667), wk =   0.0185185
        k(   43) = (   0.3333333   0.0000000   0.3333333), wk =   0.0185185
        k(   44) = (   0.3333333   0.0000000  -0.5000000), wk =   0.0185185
        k(   45) = (   0.3333333   0.1666667   0.0000000), wk =   0.0185185
        k(   46) = (   0.3333333   0.1666667   0.1666667), wk =   0.0185185
        k(   47) = (   0.3333333   0.1666667   0.3333333), wk =   0.0185185
        k(   48) = (   0.3333333   0.1666667  -0.5000000), wk =   0.0185185
        k(   49) = (   0.3333333   0.1666667  -0.3333333), wk =   0.0185185
        k(   50) = (   0.3333333   0.1666667  -0.1666667), wk =   0.0185185
        k(   51) = (   0.3333333   0.3333333   0.0000000), wk =   0.0185185
        k(   52) = (   0.3333333   0.3333333   0.1666667), wk =   0.0185185
        k(   53) = (   0.3333333   0.3333333   0.3333333), wk =   0.0185185
        k(   54) = (   0.3333333   0.3333333  -0.5000000), wk =   0.0185185
        k(   55) = (   0.3333333   0.3333333  -0.3333333), wk =   0.0185185
        k(   56) = (   0.3333333   0.3333333  -0.1666667), wk =   0.0185185
        k(   57) = (   0.3333333  -0.5000000   0.0000000), wk =   0.0185185
        k(   58) = (   0.3333333  -0.5000000   0.1666667), wk =   0.0185185
        k(   59) = (   0.3333333  -0.5000000   0.3333333), wk =   0.0185185
        k(   60) = (   0.3333333  -0.5000000  -0.5000000), wk =   0.0185185
        k(   61) = (  -0.5000000   0.0000000   0.0000000), wk =   0.0092593
        k(   62) = (  -0.5000000   0.0000000   0.1666667), wk =   0.0185185
        k(   63) = (  -0.5000000   0.0000000   0.3333333), wk =   0.0185185
        k(   64) = (  -0.5000000   0.0000000  -0.5000000), wk =   0.0092593
        k(   65) = (  -0.5000000   0.1666667   0.0000000), wk =   0.0185185
        k(   66) = (  -0.5000000   0.1666667   0.1666667), wk =   0.0185185
        k(   67) = (  -0.5000000   0.1666667   0.3333333), wk =   0.0185185
        k(   68) = (  -0.5000000   0.1666667  -0.5000000), wk =   0.0185185
        k(   69) = (  -0.5000000   0.1666667  -0.3333333), wk =   0.0185185
        k(   70) = (  -0.5000000   0.1666667  -0.1666667), wk =   0.0185185
        k(   71) = (  -0.5000000   0.3333333   0.0000000), wk =   0.0185185
        k(   72) = (  -0.5000000   0.3333333   0.1666667), wk =   0.0185185
        k(   73) = (  -0.5000000   0.3333333   0.3333333), wk =   0.0185185
        k(   74) = (  -0.5000000   0.3333333  -0.5000000), wk =   0.0185185
        k(   75) = (  -0.5000000   0.3333333  -0.3333333), wk =   0.0185185
        k(   76) = (  -0.5000000   0.3333333  -0.1666667), wk =   0.0185185
        k(   77) = (  -0.5000000  -0.5000000   0.0000000), wk =   0.0092593
        k(   78) = (  -0.5000000  -0.5000000   0.1666667), wk =   0.0185185
        k(   79) = (  -0.5000000  -0.5000000   0.3333333), wk =   0.0185185
        k(   80) = (  -0.5000000  -0.5000000  -0.5000000), wk =   0.0092593
        k(   81) = (   0.1666667  -0.0000000  -0.1666667), wk =   0.0185185
        k(   82) = (   0.1666667  -0.0000000  -0.3333333), wk =   0.0185185
        k(   83) = (   0.1666667  -0.1666667   0.0000000), wk =   0.0185185
        k(   84) = (   0.1666667  -0.1666667  -0.1666667), wk =   0.0185185
        k(   85) = (   0.1666667  -0.1666667  -0.3333333), wk =   0.0185185
        k(   86) = (   0.1666667  -0.1666667   0.5000000), wk =   0.0185185
        k(   87) = (   0.1666667  -0.1666667   0.3333333), wk =   0.0185185
        k(   88) = (   0.1666667  -0.1666667   0.1666667), wk =   0.0185185
        k(   89) = (   0.1666667  -0.3333333   0.0000000), wk =   0.0185185
        k(   90) = (   0.1666667  -0.3333333  -0.1666667), wk =   0.0185185
        k(   91) = (   0.1666667  -0.3333333  -0.3333333), wk =   0.0185185
        k(   92) = (   0.1666667  -0.3333333   0.5000000), wk =   0.0185185
        k(   93) = (   0.1666667  -0.3333333   0.3333333), wk =   0.0185185
        k(   94) = (   0.1666667  -0.3333333   0.1666667), wk =   0.0185185
        k(   95) = (   0.1666667   0.5000000  -0.1666667), wk =   0.0185185
        k(   96) = (   0.1666667   0.5000000  -0.3333333), wk =   0.0185185
        k(   97) = (   0.3333333  -0.0000000  -0.1666667), wk =   0.0185185
        k(   98) = (   0.3333333  -0.0000000  -0.3333333), wk =   0.0185185
        k(   99) = (   0.3333333  -0.1666667   0.0000000), wk =   0.0185185
        k(  100) = (   0.3333333  -0.1666667  -0.1666667), wk =   0.0185185
        k(  101) = (   0.3333333  -0.1666667  -0.3333333), wk =   0.0185185
        k(  102) = (   0.3333333  -0.1666667   0.5000000), wk =   0.0185185
        k(  103) = (   0.3333333  -0.1666667   0.3333333), wk =   0.0185185
        k(  104) = (   0.3333333  -0.1666667   0.1666667), wk =   0.0185185
        k(  105) = (   0.3333333  -0.3333333   0.0000000), wk =   0.0185185
        k(  106) = (   0.3333333  -0.3333333  -0.1666667), wk =   0.0185185
        k(  107) = (   0.3333333  -0.3333333  -0.3333333), wk =   0.0185185
        k(  108) = (   0.3333333  -0.3333333   0.5000000), wk =   0.0185185
        k(  109) = (   0.3333333  -0.3333333   0.3333333), wk =   0.0185185
        k(  110) = (   0.3333333  -0.3333333   0.1666667), wk =   0.0185185
        k(  111) = (   0.3333333   0.5000000  -0.1666667), wk =   0.0185185
        k(  112) = (   0.3333333   0.5000000  -0.3333333), wk =   0.0185185

     Dense  grid:  1986367 G-vectors     FFT dimensions: ( 180, 135, 192)

     Smooth grid:   481653 G-vectors     FFT dimensions: ( 108,  81, 120)

     Dynamical RAM for                 wfc:     634.92 MB

     Dynamical RAM for     wfc (w. buffer):     634.92 MB

     Dynamical RAM for           str. fact:      60.62 MB

     Dynamical RAM for           local pot:       0.00 MB

     Dynamical RAM for          nlocal pot:    2381.63 MB

     Dynamical RAM for                qrad:       3.05 MB

     Dynamical RAM for          rho,v,vnew:     197.72 MB

     Dynamical RAM for               rhoin:      65.91 MB

     Dynamical RAM for            rho*nmix:     484.95 MB

     Dynamical RAM for           G-vectors:     117.34 MB

     Dynamical RAM for          h,s,v(r/c):      87.43 MB

     Dynamical RAM for          <psi|beta>:      27.33 MB

     Dynamical RAM for                 psi:    1269.83 MB

     Dynamical RAM for                hpsi:    1269.83 MB

     Dynamical RAM for                spsi:    1269.83 MB

     Dynamical RAM for      wfcinit/wfcrot:    2283.62 MB

     Dynamical RAM for           addusdens:      99.86 MB

     Estimated static dynamical RAM per process >       3.64 GB

     Estimated max dynamical RAM per process >       7.95 GB

     Estimated total dynamical RAM >     837.67 GB

     Initial potential from superposition of free atoms

     starting charge    1151.8050, renormalised to    1152.0000

     negative rho (up, down):  4.353E+00 0.000E+00
     Starting wfcs are 1224 randomized atomic wfcs
 
 ==========================================
 * initializing SIRIUS simulation context *
 ==========================================
[info] SIRIUS version : 7.6.1
[info] git hash       : 9fe5844dab9874ae0d8dd285a87fd2960fd1ba31
[info] git branch     : heads/develop
[info] build time     : 2024-12-18 18:23:11
[info] start time     : Wed, 18 Dec 2024 18:33:49
[info] 
[info] number of MPI ranks           : 112
[info] MPI grid                      : 1 1
[info] maximum number of OMP threads : 6
[info] number of MPI ranks per node  : 8
[info] page size (Kb)                : 4
[info] number of pages               : 131896285
[info] available memory (GB)         : 503
[info] 
[fft] FFT context for density and potential
[fft] =====================================
[fft]   comm size                             : 112
[fft]   plane wave cutoff                     : 18.9737
[fft]   grid size                             : 180 135 192   total : 4665600
[fft]   grid limits                           : -89 90   -67 67   -95 96
[fft]   number of G-vectors within the cutoff : 993184
[fft]   local number of G-vectors             : 8865
[fft]   number of G-shells                    : 500965
[fft] 
[fft] FFT context for coarse grid
[fft] =====================================
[fft]   comm size                             : 1
[fft]   plane wave cutoff                     : 11.8322
[fft]   grid size                             : 120 90 120   total : 1296000
[fft]   grid limits                           : -59 60   -44 45   -59 60
[fft]   number of G-vectors within the cutoff : 240827
[fft]   local number of G-vectors             : 2154
[fft]   number of G-shells                    : 122122
[fft] 
[fft] 
[unit cell] lattice vectors
[unit cell]   a1 :      28.4929125619      0.0000000000      0.0000000000
[unit cell]   a2 :      -0.0000000000     20.0136439017      7.5838095763
[unit cell]   a3 :       0.0000000000      0.0000000000     30.1999399648
[unit cell] reciprocal lattice vectors
[unit cell]   b1 :       0.2205174811      0.0000000000     -0.0000000000
[unit cell]   b2 :       0.0000000000      0.3139450936      0.0000000000
[unit cell]   b3 :       0.0000000000     -0.0788378987      0.2080529072
[unit cell] 
[unit cell] unit cell volume :     17221.42533830 [a.u.^3]
[unit cell] 1/sqrt(omega)    :         0.00762018
[unit cell] MT volume        :         0.00000000 ( 0.00%)
[unit cell] IT volume        :     17221.42533830 (100.00%)
[unit cell] 
[unit cell] number of atom types : 2
[unit cell] type id : 0 symbol :    mt_radius : 100.578918 num_atoms : 72
[unit cell] type id : 1 symbol :    mt_radius : 206.039809 num_atoms : 72
[unit cell] total number of atoms : 144
[unit cell] number of symmetry classes : 144
[unit cell] number of PAW atoms : 0
[unit cell] 
[unit cell] atom id  type id  class id             position                      vector_field
[unit cell] ------------------------------------------------------------------------------------------
[unit cell]      0        1        0      0.06004   0.28857   0.09961      0.00000   0.00000   0.00000
[unit cell]      1        1        1      0.05830   0.28827   0.42717      0.00000   0.00000   0.00000
[unit cell]      2        1        2      0.06451   0.29150   0.76341      0.00000   0.00000   0.00000
[unit cell]      3        1        3      0.06741   0.61987   0.09797      0.00000   0.00000   0.00000
[unit cell]      4        1        4      0.06221   0.61835   0.43510      0.00000   0.00000   0.00000
[unit cell]      5        1        5      0.06109   0.61259   0.76790      0.00000   0.00000   0.00000
[unit cell]      6        1        6      0.06108   0.94798   0.09352      0.00000   0.00000   0.00000
[unit cell]      7        1        7      0.06005   0.95215   0.43441      0.00000   0.00000   0.00000
[unit cell]      8        1        8      0.06776   0.95113   0.76418      0.00000   0.00000   0.00000
[unit cell]      9        1        9      0.31138   0.27796   0.09695      0.00000   0.00000   0.00000
[unit cell]     10        1       10      0.30879   0.29004   0.43001      0.00000   0.00000   0.00000
[unit cell]     11        1       11      0.31025   0.27811   0.76492      0.00000   0.00000   0.00000
[unit cell]     12        1       12      0.31261   0.62513   0.09297      0.00000   0.00000   0.00000
[unit cell]     13        1       13      0.31339   0.62364   0.42536      0.00000   0.00000   0.00000
[unit cell]     14        1       14      0.31162   0.61099   0.76423      0.00000   0.00000   0.00000
[unit cell]     15        1       15      0.31118   0.94511   0.09619      0.00000   0.00000   0.00000
[unit cell]     16        1       16      0.31738   0.95080   0.42845      0.00000   0.00000   0.00000
[unit cell]     17        1       17      0.31493   0.95410   0.75870      0.00000   0.00000   0.00000
[unit cell]     18        1       18      0.56004   0.29096   0.09722      0.00000   0.00000   0.00000
[unit cell]     19        1       19      0.55876   0.28039   0.43314      0.00000   0.00000   0.00000
[unit cell]     20        1       20      0.56210   0.28092   0.76869      0.00000   0.00000   0.00000
[unit cell]     21        1       21      0.55969   0.62460   0.09584      0.00000   0.00000   0.00000
[unit cell]     22        1       22      0.56744   0.61866   0.43183      0.00000   0.00000   0.00000
[unit cell]     23        1       23      0.56188   0.61126   0.76699      0.00000   0.00000   0.00000
[unit cell]     24        1       24      0.56154   0.95475   0.09154      0.00000   0.00000   0.00000
[unit cell]     25        1       25      0.56709   0.94845   0.42953      0.00000   0.00000   0.00000
[unit cell]     26        1       26      0.56739   0.95114   0.76549      0.00000   0.00000   0.00000
[unit cell]     27        1       27      0.81161   0.27752   0.09821      0.00000   0.00000   0.00000
[unit cell]     28        1       28      0.81348   0.29129   0.42598      0.00000   0.00000   0.00000
[unit cell]     29        1       29      0.80971   0.28111   0.76100      0.00000   0.00000   0.00000
[unit cell]     30        1       30      0.81511   0.62174   0.09963      0.00000   0.00000   0.00000
[unit cell]     31        1       31      0.81758   0.61633   0.43124      0.00000   0.00000   0.00000
[unit cell]     32        1       32      0.81732   0.61561   0.76299      0.00000   0.00000   0.00000
[unit cell]     33        1       33      0.81401   0.94474   0.09699      0.00000   0.00000   0.00000
[unit cell]     34        1       34      0.80908   0.94726   0.42871      0.00000   0.00000   0.00000
[unit cell]     35        1       35      0.80847   0.95542   0.76044      0.00000   0.00000   0.00000
[unit cell]     36        1       36      0.19183   0.04409   0.23716      0.00000   0.00000   0.00000
[unit cell]     37        1       37      0.18319   0.04849   0.56693      0.00000   0.00000   0.00000
[unit cell]     38        1       38      0.18584   0.04127   0.90447      0.00000   0.00000   0.00000
[unit cell]     39        1       39      0.19069   0.37665   0.23997      0.00000   0.00000   0.00000
[unit cell]     40        1       40      0.18824   0.38823   0.57069      0.00000   0.00000   0.00000
[unit cell]     41        1       41      0.18426   0.38656   0.89966      0.00000   0.00000   0.00000
[unit cell]     42        1       42      0.19207   0.71670   0.23843      0.00000   0.00000   0.00000
[unit cell]     43        1       43      0.19165   0.71485   0.57305      0.00000   0.00000   0.00000
[unit cell]     44        1       44      0.18533   0.71203   0.89987      0.00000   0.00000   0.00000
[unit cell]     45        1       45      0.43503   0.04405   0.23427      0.00000   0.00000   0.00000
[unit cell]     46        1       46      0.43534   0.05446   0.56617      0.00000   0.00000   0.00000
[unit cell]     47        1       47      0.43775   0.04570   0.90855      0.00000   0.00000   0.00000
[unit cell]     48        1       48      0.43437   0.38300   0.24017      0.00000   0.00000   0.00000
[unit cell]     49        1       49      0.44277   0.38201   0.56922      0.00000   0.00000   0.00000
[unit cell]     50        1       50      0.43333   0.38543   0.90039      0.00000   0.00000   0.00000
[unit cell]     51        1       51      0.44016   0.71773   0.23982      0.00000   0.00000   0.00000
[unit cell]     52        1       52      0.44179   0.71080   0.57177      0.00000   0.00000   0.00000
[unit cell]     53        1       53      0.43856   0.71596   0.89811      0.00000   0.00000   0.00000
[unit cell]     54        1       54      0.68281   0.05142   0.23700      0.00000   0.00000   0.00000
[unit cell]     55        1       55      0.68789   0.05593   0.56801      0.00000   0.00000   0.00000
[unit cell]     56        1       56      0.69153   0.04394   0.90569      0.00000   0.00000   0.00000
[unit cell]     57        1       57      0.68461   0.38795   0.23417      0.00000   0.00000   0.00000
[unit cell]     58        1       58      0.68310   0.38401   0.57166      0.00000   0.00000   0.00000
[unit cell]     59        1       59      0.68695   0.38666   0.89821      0.00000   0.00000   0.00000
[unit cell]     60        1       60      0.68542   0.70831   0.23934      0.00000   0.00000   0.00000
[unit cell]     61        1       61      0.68658   0.70874   0.56887      0.00000   0.00000   0.00000
[unit cell]     62        1       62      0.68790   0.71375   0.90845      0.00000   0.00000   0.00000
[unit cell]     63        1       63      0.93596   0.05075   0.24048      0.00000   0.00000   0.00000
[unit cell]     64        1       64      0.93878   0.04813   0.57480      0.00000   0.00000   0.00000
[unit cell]     65        1       65      0.94209   0.04657   0.90587      0.00000   0.00000   0.00000
[unit cell]     66        1       66      0.93599   0.38611   0.23162      0.00000   0.00000   0.00000
[unit cell]     67        1       67      0.93311   0.37772   0.57182      0.00000   0.00000   0.00000
[unit cell]     68        1       68      0.93279   0.37874   0.90515      0.00000   0.00000   0.00000
[unit cell]     69        1       69      0.93826   0.72252   0.23435      0.00000   0.00000   0.00000
[unit cell]     70        1       70      0.93375   0.71901   0.56650      0.00000   0.00000   0.00000
[unit cell]     71        1       71      0.94044   0.71143   0.90752      0.00000   0.00000   0.00000
[unit cell]     72        0       72      0.18547   0.13549   0.05034      0.00000   0.00000   0.00000
[unit cell]     73        0       73      0.18526   0.13850   0.38179      0.00000   0.00000   0.00000
[unit cell]     74        0       74      0.18348   0.13646   0.72182      0.00000   0.00000   0.00000
[unit cell]     75        0       75      0.18534   0.47065   0.05714      0.00000   0.00000   0.00000
[unit cell]     76        0       76      0.18980   0.48054   0.38307      0.00000   0.00000   0.00000
[unit cell]     77        0       77      0.18491   0.47766   0.72157      0.00000   0.00000   0.00000
[unit cell]     78        0       78      0.18340   0.80360   0.05107      0.00000   0.00000   0.00000
[unit cell]     79        0       79      0.19050   0.80420   0.38999      0.00000   0.00000   0.00000
[unit cell]     80        0       80      0.18881   0.81284   0.72061      0.00000   0.00000   0.00000
[unit cell]     81        0       81      0.43687   0.13441   0.05094      0.00000   0.00000   0.00000
[unit cell]     82        0       82      0.43585   0.14119   0.38071      0.00000   0.00000   0.00000
[unit cell]     83        0       83      0.43908   0.13558   0.72367      0.00000   0.00000   0.00000
[unit cell]     84        0       84      0.44268   0.47544   0.05169      0.00000   0.00000   0.00000
[unit cell]     85        0       85      0.43227   0.47258   0.38576      0.00000   0.00000   0.00000
[unit cell]     86        0       86      0.43359   0.46959   0.72189      0.00000   0.00000   0.00000
[unit cell]     87        0       87      0.44193   0.80671   0.05514      0.00000   0.00000   0.00000
[unit cell]     88        0       88      0.43797   0.80017   0.38560      0.00000   0.00000   0.00000
[unit cell]     89        0       89      0.43308   0.80539   0.71691      0.00000   0.00000   0.00000
[unit cell]     90        0       90      0.68901   0.13335   0.05477      0.00000   0.00000   0.00000
[unit cell]     91        0       91      0.68283   0.13946   0.38815      0.00000   0.00000   0.00000
[unit cell]     92        0       92      0.68843   0.13591   0.71624      0.00000   0.00000   0.00000
[unit cell]     93        0       93      0.68702   0.47834   0.04716      0.00000   0.00000   0.00000
[unit cell]     94        0       94      0.68633   0.47888   0.38793      0.00000   0.00000   0.00000
[unit cell]     95        0       95      0.68703   0.46832   0.72372      0.00000   0.00000   0.00000
[unit cell]     96        0       96      0.68551   0.81409   0.05134      0.00000   0.00000   0.00000
[unit cell]     97        0       97      0.68391   0.80774   0.38915      0.00000   0.00000   0.00000
[unit cell]     98        0       98      0.68328   0.80283   0.72098      0.00000   0.00000   0.00000
[unit cell]     99        0       99      0.93291   0.13675   0.05305      0.00000   0.00000   0.00000
[unit cell]    100        0      100      0.94104   0.14613   0.38387      0.00000   0.00000   0.00000
[unit cell]    101        0      101      0.93716   0.13578   0.71626      0.00000   0.00000   0.00000
[unit cell]    102        0      102      0.94157   0.47495   0.05514      0.00000   0.00000   0.00000
[unit cell]    103        0      103      0.94279   0.47337   0.38566      0.00000   0.00000   0.00000
[unit cell]    104        0      104      0.94242   0.47115   0.71905      0.00000   0.00000   0.00000
[unit cell]    105        0      105      0.94153   0.81102   0.04929      0.00000   0.00000   0.00000
[unit cell]    106        0      106      0.93696   0.80737   0.39055      0.00000   0.00000   0.00000
[unit cell]    107        0      107      0.94090   0.81291   0.71690      0.00000   0.00000   0.00000
[unit cell]    108        0      108      0.06435   0.19931   0.27756      0.00000   0.00000   0.00000
[unit cell]    109        0      109      0.06719   0.19630   0.61383      0.00000   0.00000   0.00000
[unit cell]    110        0      110      0.05956   0.19423   0.94330      0.00000   0.00000   0.00000
[unit cell]    111        0      111      0.06017   0.52214   0.28568      0.00000   0.00000   0.00000
[unit cell]    112        0      112      0.06017   0.52451   0.61916      0.00000   0.00000   0.00000
[unit cell]    113        0      113      0.06390   0.53091   0.95017      0.00000   0.00000   0.00000
[unit cell]    114        0      114      0.05916   0.85393   0.28117      0.00000   0.00000   0.00000
[unit cell]    115        0      115      0.05938   0.86131   0.61778      0.00000   0.00000   0.00000
[unit cell]    116        0      116      0.06102   0.86455   0.94300      0.00000   0.00000   0.00000
[unit cell]    117        0      117      0.31392   0.19274   0.28589      0.00000   0.00000   0.00000
[unit cell]    118        0      118      0.31222   0.18961   0.61971      0.00000   0.00000   0.00000
[unit cell]    119        0      119      0.31196   0.18984   0.95303      0.00000   0.00000   0.00000
[unit cell]    120        0      120      0.31060   0.52403   0.28603      0.00000   0.00000   0.00000
[unit cell]    121        0      121      0.31683   0.52925   0.61156      0.00000   0.00000   0.00000
[unit cell]    122        0      122      0.31711   0.52277   0.94964      0.00000   0.00000   0.00000
[unit cell]    123        0      123      0.31744   0.86212   0.27983      0.00000   0.00000   0.00000
[unit cell]    124        0      124      0.31702   0.85596   0.61645      0.00000   0.00000   0.00000
[unit cell]    125        0      125      0.31586   0.86349   0.94952      0.00000   0.00000   0.00000
[unit cell]    126        0      126      0.55886   0.19290   0.28467      0.00000   0.00000   0.00000
[unit cell]    127        0      127      0.56195   0.19800   0.60948      0.00000   0.00000   0.00000
[unit cell]    128        0      128      0.56099   0.19533   0.95158      0.00000   0.00000   0.00000
[unit cell]    129        0      129      0.56112   0.52097   0.28575      0.00000   0.00000   0.00000
[unit cell]    130        0      130      0.56240   0.51972   0.61863      0.00000   0.00000   0.00000
[unit cell]    131        0      131      0.56653   0.52743   0.95054      0.00000   0.00000   0.00000
[unit cell]    132        0      132      0.56169   0.85226   0.28159      0.00000   0.00000   0.00000
[unit cell]    133        0      133      0.56123   0.86060   0.61890      0.00000   0.00000   0.00000
[unit cell]    134        0      134      0.56723   0.85746   0.95005      0.00000   0.00000   0.00000
[unit cell]    135        0      135      0.81136   0.18567   0.28160      0.00000   0.00000   0.00000
[unit cell]    136        0      136      0.81667   0.19527   0.61640      0.00000   0.00000   0.00000
[unit cell]    137        0      137      0.81005   0.18630   0.94829      0.00000   0.00000   0.00000
[unit cell]    138        0      138      0.81282   0.53081   0.27595      0.00000   0.00000   0.00000
[unit cell]    139        0      139      0.80951   0.52200   0.61851      0.00000   0.00000   0.00000
[unit cell]    140        0      140      0.81272   0.51981   0.95202      0.00000   0.00000   0.00000
[unit cell]    141        0      141      0.81277   0.85473   0.27835      0.00000   0.00000   0.00000
[unit cell]    142        0      142      0.81494   0.86451   0.61606      0.00000   0.00000   0.00000
[unit cell]    143        0      143      0.80945   0.86433   0.94395      0.00000   0.00000   0.00000
[unit cell] 
[unit cell] atom id         position (Cartesian, a.u.)
[unit cell] ---------------------------------------------
[unit cell]      0       1.710687    5.775300    5.196556
[unit cell]      1       1.661226    5.769303   15.086606
[unit cell]      2       1.838018    5.834009   25.265505
[unit cell]      3       1.920651   12.405918    7.659631
[unit cell]      4       1.772463   12.375529   17.829580
[unit cell]      5       1.740508   12.260117   27.836386
[unit cell]      6       1.740378   18.972620   10.013543
[unit cell]      7       1.711053   19.056050   20.340250
[unit cell]      8       1.930581   19.035662   30.291512
[unit cell]      9       8.872061    5.562934    5.035892
[unit cell]     10       8.798263    5.804742   15.185896
[unit cell]     11       8.839818    5.565971   25.209756
[unit cell]     12       8.907070   12.511068    7.548647
[unit cell]     13       8.929264   12.481273   17.575319
[unit cell]     14       8.878841   12.228201   27.713499
[unit cell]     15       8.866453   18.915072   10.072491
[unit cell]     16       9.043200   19.028979   20.149747
[unit cell]     17       8.973274   19.095053   30.148483
[unit cell]     18      15.957248    5.823119    5.142648
[unit cell]     19      15.920644    5.611648   15.207372
[unit cell]     20      16.015952    5.622260   25.344901
[unit cell]     21      15.947122   12.500577    7.631199
[unit cell]     22      16.168130   12.381634   17.732961
[unit cell]     23      16.009467   12.233571   27.798805
[unit cell]     24      16.000006   19.107996   10.005210
[unit cell]     25      16.158084   18.981998   20.164562
[unit cell]     26      16.166604   19.035686   30.331115
[unit cell]     27      23.125023    5.554211    5.070620
[unit cell]     28      23.178407    5.829718   15.073751
[unit cell]     29      23.071052    5.626025   25.114021
[unit cell]     30      23.224898   12.443192    7.723835
[unit cell]     31      23.295353   12.334919   17.697491
[unit cell]     32      23.287772   12.320607   27.711000
[unit cell]     33      23.193643   18.907654   10.093941
[unit cell]     34      23.052903   18.958032   20.130689
[unit cell]     35      23.035751   19.121373   30.211060
[unit cell]     36       5.465796    0.882361    7.496475
[unit cell]     37       5.219725    0.970428   17.488870
[unit cell]     38       5.295034    0.825926   27.627843
[unit cell]     39       5.433409    7.538123   10.103547
[unit cell]     40       5.363613    7.769966   20.179032
[unit cell]     41       5.250029    7.736540   30.101317
[unit cell]     42       5.472573   14.343870   12.635942
[unit cell]     43       5.460526   14.306849   22.727325
[unit cell]     44       5.280631   14.250282   32.575807
[unit cell]     45      12.395409    0.881530    7.408834
[unit cell]     46      12.404194    1.089972   17.511251
[unit cell]     47      12.472708    0.914696   27.784886
[unit cell]     48      12.376335    7.665183   10.157768
[unit cell]     49      12.615689    7.645360   20.087442
[unit cell]     50      12.346767    7.713893   30.114892
[unit cell]     51      12.541542   14.364315   12.685792
[unit cell]     52      12.587921   14.225735   22.658154
[unit cell]     53      12.495776   14.328915   32.552630
[unit cell]     54      19.455284    1.029064    7.547282
[unit cell]     55      19.600027    1.119357   17.578178
[unit cell]     56      19.703739    0.879319   27.684947
[unit cell]     57      19.506543    7.764213   10.013983
[unit cell]     58      19.463623    7.685373   20.176453
[unit cell]     59      19.573208    7.738559   30.058364
[unit cell]     60      19.529682   14.175962   12.599702
[unit cell]     61      19.562552   14.184444   22.554689
[unit cell]     62      19.600324   14.284743   32.848127
[unit cell]     63      26.668312    1.015693    7.647341
[unit cell]     64      26.748470    0.963273   17.723815
[unit cell]     65      26.842847    0.932046   27.710344
[unit cell]     66      26.669093    7.727393    9.922990
[unit cell]     67      26.587141    7.559650   20.133627
[unit cell]     68      26.578034    7.580011   30.207865
[unit cell]     69      26.733757   14.460344   12.556957
[unit cell]     70      26.605142   14.390016   22.561116
[unit cell]     71      26.795744   14.238361   32.802548
[unit cell]     72       5.284658    2.711746    2.547853
[unit cell]     73       5.278698    2.771976   12.580401
[unit cell]     74       5.227866    2.731014   22.833826
[unit cell]     75       5.280825    9.419370    5.294903
[unit cell]     76       5.407888    9.617291   15.212971
[unit cell]     77       5.268743    9.559732   25.413829
[unit cell]     78       5.225703   16.083042    7.636750
[unit cell]     79       5.427992   16.094901   17.876560
[unit cell]     80       5.379712   16.267969   27.926982
[unit cell]     81      12.447688    2.690072    2.557740
[unit cell]     82      12.418754    2.825795   12.568309
[unit cell]     83      12.510685    2.713385   22.883054
[unit cell]     84      12.613343    9.515297    5.166655
[unit cell]     85      12.316757    9.457972   15.233949
[unit cell]     86      12.354284    9.398261   25.362290
[unit cell]     87      12.591979   16.145194    7.783111
[unit cell]     88      12.478938   16.014230   17.713289
[unit cell]     89      12.339693   16.118758   27.758492
[unit cell]     90      19.631780    2.668906    2.665449
[unit cell]     91      19.455765    2.791117   12.779839
[unit cell]     92      19.615336    2.720112   22.661256
[unit cell]     93      19.575250    9.573278    5.051752
[unit cell]     94      19.555568    9.584141   15.347212
[unit cell]     95      19.575625    9.372706   25.407878
[unit cell]     96      19.532202   16.292922    7.724478
[unit cell]     97      19.486605   16.165876   17.878059
[unit cell]     98      19.468694   16.067473   27.861898
[unit cell]     99      26.581256    2.736875    2.639130
[unit cell]    100      26.812834    2.924656   12.701221
[unit cell]    101      26.702470    2.717491   22.660758
[unit cell]    102      26.828110    9.505537    5.267120
[unit cell]    103      26.862944    9.473766   15.236914
[unit cell]    104      26.852185    9.429510   25.288465
[unit cell]    105      26.827006   16.231540    7.639265
[unit cell]    106      26.696781   16.158364   17.917634
[unit cell]    107      26.808976   16.269382   27.815346
[unit cell]    108       1.833564    3.988992    9.893886
[unit cell]    109       1.914560    3.928615   20.026219
[unit cell]    110       1.697135    3.887162   29.960437
[unit cell]    111       1.714438   10.449949   12.587465
[unit cell]    112       1.714467   10.497277   22.676243
[unit cell]    113       1.820592   10.625498   32.721332
[unit cell]    114       1.685710   17.090186   14.967308
[unit cell]    115       1.691877   17.237873   25.188990
[unit cell]    116       1.738550   17.302741   35.035211
[unit cell]    117       8.944587    3.857485   10.095458
[unit cell]    118       8.896072    3.794785   20.153183
[unit cell]    119       8.888587    3.799392   30.221262
[unit cell]    120       8.849791   10.487838   12.612415
[unit cell]    121       9.027321   10.592195   22.482825
[unit cell]    122       9.035308   10.462571   32.643760
[unit cell]    123       9.044681   17.254112   14.988961
[unit cell]    124       9.032954   17.130846   25.108075
[unit cell]    125       8.999838   17.281534   35.224039
[unit cell]    126      15.923589    3.860622   10.059842
[unit cell]    127      16.011628    3.962760   19.907804
[unit cell]    128      15.984178    3.909294   30.218958
[unit cell]    129      15.987832   10.426463   12.580578
[unit cell]    130      16.024440   10.401543   22.623996
[unit cell]    131      16.142017   10.555730   32.706066
[unit cell]    132      16.004286   17.056839   14.967366
[unit cell]    133      15.991183   17.223722   25.217428
[unit cell]    134      16.162000   17.160870   35.194396
[unit cell]    135      23.118052    3.715981    9.912457
[unit cell]    136      23.269184    3.908070   20.096112
[unit cell]    137      23.080626    3.728626   30.051176
[unit cell]    138      23.159631   10.623414   12.359215
[unit cell]    139      23.065275   10.447100   22.637754
[unit cell]    140      23.156797   10.403291   32.693205
[unit cell]    141      23.158124   17.106357   14.888269
[unit cell]    142      23.219991   17.301943   25.161159
[unit cell]    143      23.063621   17.298309   35.062249
[unit cell] 
[unit cell] class id : 0 atom id : 0 
[unit cell] class id : 1 atom id : 1 
[unit cell] class id : 2 atom id : 2 
[unit cell] class id : 3 atom id : 3 
[unit cell] class id : 4 atom id : 4 
[unit cell] class id : 5 atom id : 5 
[unit cell] class id : 6 atom id : 6 
[unit cell] class id : 7 atom id : 7 
[unit cell] class id : 8 atom id : 8 
[unit cell] class id : 9 atom id : 9 
[unit cell] class id : 10 atom id : 10 
[unit cell] class id : 11 atom id : 11 
[unit cell] class id : 12 atom id : 12 
[unit cell] class id : 13 atom id : 13 
[unit cell] class id : 14 atom id : 14 
[unit cell] class id : 15 atom id : 15 
[unit cell] class id : 16 atom id : 16 
[unit cell] class id : 17 atom id : 17 
[unit cell] class id : 18 atom id : 18 
[unit cell] class id : 19 atom id : 19 
[unit cell] class id : 20 atom id : 20 
[unit cell] class id : 21 atom id : 21 
[unit cell] class id : 22 atom id : 22 
[unit cell] class id : 23 atom id : 23 
[unit cell] class id : 24 atom id : 24 
[unit cell] class id : 25 atom id : 25 
[unit cell] class id : 26 atom id : 26 
[unit cell] class id : 27 atom id : 27 
[unit cell] class id : 28 atom id : 28 
[unit cell] class id : 29 atom id : 29 
[unit cell] class id : 30 atom id : 30 
[unit cell] class id : 31 atom id : 31 
[unit cell] class id : 32 atom id : 32 
[unit cell] class id : 33 atom id : 33 
[unit cell] class id : 34 atom id : 34 
[unit cell] class id : 35 atom id : 35 
[unit cell] class id : 36 atom id : 36 
[unit cell] class id : 37 atom id : 37 
[unit cell] class id : 38 atom id : 38 
[unit cell] class id : 39 atom id : 39 
[unit cell] class id : 40 atom id : 40 
[unit cell] class id : 41 atom id : 41 
[unit cell] class id : 42 atom id : 42 
[unit cell] class id : 43 atom id : 43 
[unit cell] class id : 44 atom id : 44 
[unit cell] class id : 45 atom id : 45 
[unit cell] class id : 46 atom id : 46 
[unit cell] class id : 47 atom id : 47 
[unit cell] class id : 48 atom id : 48 
[unit cell] class id : 49 atom id : 49 
[unit cell] class id : 50 atom id : 50 
[unit cell] class id : 51 atom id : 51 
[unit cell] class id : 52 atom id : 52 
[unit cell] class id : 53 atom id : 53 
[unit cell] class id : 54 atom id : 54 
[unit cell] class id : 55 atom id : 55 
[unit cell] class id : 56 atom id : 56 
[unit cell] class id : 57 atom id : 57 
[unit cell] class id : 58 atom id : 58 
[unit cell] class id : 59 atom id : 59 
[unit cell] class id : 60 atom id : 60 
[unit cell] class id : 61 atom id : 61 
[unit cell] class id : 62 atom id : 62 
[unit cell] class id : 63 atom id : 63 
[unit cell] class id : 64 atom id : 64 
[unit cell] class id : 65 atom id : 65 
[unit cell] class id : 66 atom id : 66 
[unit cell] class id : 67 atom id : 67 
[unit cell] class id : 68 atom id : 68 
[unit cell] class id : 69 atom id : 69 
[unit cell] class id : 70 atom id : 70 
[unit cell] class id : 71 atom id : 71 
[unit cell] class id : 72 atom id : 72 
[unit cell] class id : 73 atom id : 73 
[unit cell] class id : 74 atom id : 74 
[unit cell] class id : 75 atom id : 75 
[unit cell] class id : 76 atom id : 76 
[unit cell] class id : 77 atom id : 77 
[unit cell] class id : 78 atom id : 78 
[unit cell] class id : 79 atom id : 79 
[unit cell] class id : 80 atom id : 80 
[unit cell] class id : 81 atom id : 81 
[unit cell] class id : 82 atom id : 82 
[unit cell] class id : 83 atom id : 83 
[unit cell] class id : 84 atom id : 84 
[unit cell] class id : 85 atom id : 85 
[unit cell] class id : 86 atom id : 86 
[unit cell] class id : 87 atom id : 87 
[unit cell] class id : 88 atom id : 88 
[unit cell] class id : 89 atom id : 89 
[unit cell] class id : 90 atom id : 90 
[unit cell] class id : 91 atom id : 91 
[unit cell] class id : 92 atom id : 92 
[unit cell] class id : 93 atom id : 93 
[unit cell] class id : 94 atom id : 94 
[unit cell] class id : 95 atom id : 95 
[unit cell] class id : 96 atom id : 96 
[unit cell] class id : 97 atom id : 97 
[unit cell] class id : 98 atom id : 98 
[unit cell] class id : 99 atom id : 99 
[unit cell] class id : 100 atom id : 100 
[unit cell] class id : 101 atom id : 101 
[unit cell] class id : 102 atom id : 102 
[unit cell] class id : 103 atom id : 103 
[unit cell] class id : 104 atom id : 104 
[unit cell] class id : 105 atom id : 105 
[unit cell] class id : 106 atom id : 106 
[unit cell] class id : 107 atom id : 107 
[unit cell] class id : 108 atom id : 108 
[unit cell] class id : 109 atom id : 109 
[unit cell] class id : 110 atom id : 110 
[unit cell] class id : 111 atom id : 111 
[unit cell] class id : 112 atom id : 112 
[unit cell] class id : 113 atom id : 113 
[unit cell] class id : 114 atom id : 114 
[unit cell] class id : 115 atom id : 115 
[unit cell] class id : 116 atom id : 116 
[unit cell] class id : 117 atom id : 117 
[unit cell] class id : 118 atom id : 118 
[unit cell] class id : 119 atom id : 119 
[unit cell] class id : 120 atom id : 120 
[unit cell] class id : 121 atom id : 121 
[unit cell] class id : 122 atom id : 122 
[unit cell] class id : 123 atom id : 123 
[unit cell] class id : 124 atom id : 124 
[unit cell] class id : 125 atom id : 125 
[unit cell] class id : 126 atom id : 126 
[unit cell] class id : 127 atom id : 127 
[unit cell] class id : 128 atom id : 128 
[unit cell] class id : 129 atom id : 129 
[unit cell] class id : 130 atom id : 130 
[unit cell] class id : 131 atom id : 131 
[unit cell] class id : 132 atom id : 132 
[unit cell] class id : 133 atom id : 133 
[unit cell] class id : 134 atom id : 134 
[unit cell] class id : 135 atom id : 135 
[unit cell] class id : 136 atom id : 136 
[unit cell] class id : 137 atom id : 137 
[unit cell] class id : 138 atom id : 138 
[unit cell] class id : 139 atom id : 139 
[unit cell] class id : 140 atom id : 140 
[unit cell] class id : 141 atom id : 141 
[unit cell] class id : 142 atom id : 142 
[unit cell] class id : 143 atom id : 143 
[unit cell] 
[unit cell] minimum bond length:     4.357012
[unit cell] 
[unit cell] total number of pseudo wave-functions: 1224
[unit cell] 
[sym] space group number   : 1
[sym] international symbol : P1
[sym] Hall symbol          : P 1
[sym] space group transformation matrix : 
[sym]   0.0000  1.0000  1.0000
[sym]  -1.0000  0.0000  0.0000
[sym]   0.0000  0.0000  1.0000
[sym] space group origin shift : 
[sym]   0.0000  0.0000  0.0000
[sym] number of space group operations  : 1
[sym] number of magnetic group operations : 1
[sym] metric tensor error: 0.0000e+00
[sym] rotation matrix error: 3.3307e-16
[sym] 
[sym] symmetry operations 
[sym] 
[sym] isym : 0
[sym] R :   1  0  0
[sym]       0  1  0
[sym]       0  0  1
[sym] Rc:   1.0000  0.0000  0.0000
[sym]       0.0000  1.0000  0.0000
[sym]       0.0000  0.0000  1.0000
[sym] t :   0.0000  0.0000  0.0000
[sym] S :   1.0000  0.0000  0.0000
[sym]       0.0000  1.0000  0.0000
[sym]       0.0000  0.0000  1.0000
[sym] proper:  1
[sym] 
[atom type] label          : Si
[atom type] --------------------------------------------------------------------------------
[atom type] symbol         : 
[atom type] name           : 
[atom type] zn             : 4
[atom type] mass           : 28.0855
[atom type] mt_radius      : 100.579
[atom type] num_mt_points  : 1141
[atom type] grid_origin    : 6.51344e-05
[atom type] grid_name      : external
[atom type] 
[atom type] number of core electrons    : 0
[atom type] number of valence electrons : 4
[atom type] 
[atom type] total number of radial functions : 6
[atom type] lmax of radial functions         : 2
[atom type] max. number of radial functions  : 2
[atom type] total number of basis functions  : 18
[atom type] number of aw basis functions     : 18
[atom type] number of lo basis functions     : 0
[atom type] lmax_apw                         : -1
[atom type] lmax of beta-projectors          : 2
[atom type] number of ps wavefunctions       : 2
[...]
 sirius::Density::update                                          2     239.23 ms       0.19     100.00     119.62 ms      29.99 ms     209.24 ms
 sirius::Density::generate_pseudo_core_charge_density             2     239.19 ms       0.19     100.00     119.60 ms      29.98 ms     209.21 ms
 newd                                                             1     224.64 ms       0.18     100.00     224.64 ms     224.64 ms     224.64 ms
 sirius::Unit_cell::update                                        2     222.50 ms       0.18     100.00     111.25 ms      11.02 ms     211.48 ms
 sirius::Unit_cell::initialize                                    1     214.44 ms       0.17     100.00     214.44 ms     214.44 ms     214.44 ms
 sirius::Unit_cell::get_symmetry                                  2     204.22 ms       0.16     100.00     102.11 ms       2.15 ms     202.07 ms
 sirius::Crystal_symmetry                                         2     202.55 ms       0.16     100.00     101.27 ms       1.85 ms     200.70 ms
 sirius::Crystal_symmetry|spg                                     2     201.03 ms       0.16     100.00     100.52 ms       1.39 ms     199.64 ms
 sirius::K_point_set::find_band_occupancies                      22     199.63 ms       0.16     100.00       7.08 ms       6.23 ms      26.84 ms
 sirius::Density::mix                                            22     184.95 ms       0.15     100.00       9.43 ms       2.41 ms      14.37 ms
 sirius::Local_operator                                          23     184.14 ms       0.15     100.00       6.69 ms       6.04 ms      18.17 ms
 sirius::inner::spf                                             309     168.99 ms       0.13     100.00     372.39 us     360.94 us       4.34 ms
 sirius::Augmentation_operator::generate_pw_coeffs                2     157.46 ms       0.12     100.00      78.73 ms      50.24 ms     107.21 ms
 sirius::inner::pf                                              236     141.81 ms       0.11     100.00     384.84 us     365.32 us       4.34 ms
 sirius::K_point::generate_atomic_wave_functions                  1     139.23 ms       0.11     100.00     139.23 ms     139.23 ms     139.23 ms
 fft::Gvec::find_z_columns                                      114     138.15 ms       0.11     100.00     932.88 us     897.55 us      24.12 ms
 sirius::initialize_subspace|kp|wf                                1     119.93 ms       0.09     100.00     119.93 ms     119.93 ms     119.93 ms
 fft::Gvec::find_z_columns|add                                  114     118.27 ms       0.09     100.00     873.78 us     842.09 us      14.08 ms
 sirius::Density::mixer_output                                   22     117.98 ms       0.09     100.00       6.55 ms     800.94 us       8.56 ms
 v_h                                                              1     107.79 ms       0.09     100.00     107.79 ms     107.79 ms     107.79 ms
 sirius::Potential::xc_rg_nonmagnetic|libxc                      46     101.41 ms       0.08     100.00       2.71 ms       1.43 ms       4.81 ms
 sirius::Potential                                                1      90.07 ms       0.07     100.00      90.07 ms      90.07 ms      90.07 ms
 sirius::Potential::update                                        1      88.30 ms       0.07     100.00      88.30 ms      88.30 ms      88.30 ms
 qvan2                                                          684      83.04 ms       0.07     100.00      91.33 us     901.00 ns     409.81 us
 api::sirius::get_pw_coeffs                                       1      81.59 ms       0.06     100.00      81.59 ms      81.59 ms      81.59 ms
 sirius::Q_operator::initialize                                  23      75.74 ms       0.06     100.00       3.33 ms       3.12 ms       3.55 ms
 init_vloc                                                        1      68.89 ms       0.05     100.00      68.89 ms      68.89 ms      68.89 ms
 sirius::K_point_set::sync_band                                  44      63.73 ms       0.05     100.00     922.66 us     743.80 us       7.69 ms
 fft::Gvec::find_gvec_shells                                      2      61.00 ms       0.05     100.00      30.50 ms      11.35 ms      49.65 ms
 api::sirius::set_pw_coeffs                                       1      53.90 ms       0.04     100.00      53.90 ms      53.90 ms      53.90 ms
 wf::axpby                                                      193      48.86 ms       0.04     100.00     100.20 us      33.62 us       1.08 ms
 sirius::Potential::generate_local_potential                      1      48.35 ms       0.04     100.00      48.35 ms      48.35 ms      48.35 ms
 sirius::D_operator::initialize                                  23      43.73 ms       0.03     100.00       1.88 ms       1.85 ms       2.13 ms
 sirius::Smooth_periodic_function::gather_f_pw                    2      35.69 ms       0.03     100.00      17.84 ms      17.13 ms      18.56 ms
 sirius::Potential::poisson                                      23      29.42 ms       0.02     100.00       1.20 ms       1.11 ms       2.17 ms
 fft::Gvec_shells                                                 1      26.08 ms       0.02     100.00      26.08 ms      26.08 ms      26.08 ms
 sirius::Unit_cell::find_nearest_neighbours                       2      18.20 ms       0.01     100.00       9.10 ms       8.84 ms       9.36 ms
 fft::Gvec::find_z_columns|sym                                  114      12.72 ms       0.01     100.00      30.00 ns      20.00 ns       9.76 ms
 sirius::Hamiltonian_k                                           23       8.90 ms       0.01     100.00     342.11 us     261.31 us       1.27 ms
 sirius::Local_operator::prepare_k                               23       8.84 ms       0.01     100.00     340.90 us     256.95 us       1.27 ms
 sirius::Periodic_function::integrate                            23       8.41 ms       0.01     100.00     353.49 us     350.03 us     568.01 us
 sirius::Beta_projector_generator::generate                     238       7.24 ms       0.01     100.00       8.75 us       5.84 us       5.06 ms
 beta_projectors_generate_gpu                                   238       7.13 ms       0.01     100.00       8.23 us       5.66 us       5.05 ms
 fft::Gvec::find_z_columns|sort                                 114       6.45 ms       0.01     100.00      53.85 us      45.54 us     229.90 us
 sirius::Beta_projectors::generate_pw_coefs_t                     1       6.43 ms       0.01     100.00       6.43 ms       6.43 ms       6.43 ms
 sirius::divergence                                              46       4.53 ms       0.00     100.00     101.14 us      81.32 us     115.39 us
 sirius::gradient                                                23       3.16 ms       0.00     100.00     136.15 us     128.72 us     152.65 us
 sirius::Density::mixer_input                                    22       2.94 ms       0.00     100.00     131.53 us     119.57 us     185.80 us
 sirius::Atom_type::init                                          2       2.78 ms       0.00     100.00       1.39 ms     133.86 us       2.64 ms
 sirius::Non_local_operator                                      46       1.54 ms       0.00     100.00      26.08 us      14.63 us      62.27 us
 sirius::apply_preconditioner                                   193       1.43 ms       0.00     100.00       7.38 us       5.47 us      17.11 us
 sirius::dot                                                     23       1.42 ms       0.00     100.00      56.49 us      48.39 us     181.27 us
 wfcinit                                                          1       1.24 ms       0.00     100.00       1.24 ms       1.24 ms       1.24 ms
 sirius::Simulation_context::init_comm                            1     821.02 us       0.00     100.00     821.02 us     821.02 us     821.02 us
 sirius::Periodic_function::add                                  46     767.77 us       0.00     100.00      16.70 us      14.38 us      19.16 us
 sirius::find_sym_atom                                            4     567.73 us       0.00     100.00     137.64 us     128.61 us     163.85 us
 sirius::Crystal_symmetry|mag                                     2     347.69 us       0.00     100.00     173.85 us       1.78 us     345.91 us
 sirius::make_periodic_function                                   3     185.44 us       0.00     100.00      69.12 us      23.04 us      93.28 us
 sirius::Density::get_magnetisation                              23      60.77 us       0.00     100.00       1.45 us       1.27 us       8.06 us
 sirius::symmetrize_density_matrix                               22      11.84 us       0.00     100.00     481.00 ns     160.00 ns       2.41 us
 sirius::Potential::generate_PAW_effective_potential             23       8.86 us       0.00     100.00     230.00 ns     200.00 ns       3.86 us
 ions                                                             1       5.53 us       0.00     100.00       5.53 us       5.53 us       5.53 us

==================================================================================================================================================
Note: The following floating-point exceptions are signalling: IEEE_UNDERFLOW_FLAG IEEE_DENORMAL
Note: The following floating-point exceptions are signalling: IEEE_UNDERFLOW_FLAG IEEE_DENORMAL
Note: The following floating-point exceptions are signalling: IEEE_UNDERFLOW_FLAG IEEE_DENORMAL
Note: The following floating-point exceptions are signalling: IEEE_UNDERFLOW_FLAG IEEE_DENORMAL
Note: The following floating-point exceptions are signalling: IEEE_UNDERFLOW_FLAG IEEE_DENORMAL
Note: The following floating-point exceptions are signalling: IEEE_UNDERFLOW_FLAG IEEE_DENORMAL
Note: The following floating-point exceptions are signalling: IEEE_UNDERFLOW_FLAG IEEE_DENORMAL
Note: The following floating-point exceptions are signalling: IEEE_UNDERFLOW_FLAG IEEE_DENORMAL
Note: The following floating-point exceptions are signalling: IEEE_UNDERFLOW_FLAG IEEE_DENORMAL
Note: The following floating-point exceptions are signalling: IEEE_UNDERFLOW_FLAG IEEE_DENORMAL
Note: The following floating-point exceptions are signalling: IEEE_UNDERFLOW_FLAG IEEE_DENORMAL
Note: The following floating-point exceptions are signalling: IEEE_UNDERFLOW_FLAG IEEE_DENORMAL
Note: The following floating-point exceptions are signalling: IEEE_UNDERFLOW_FLAG IEEE_DENORMAL
Note: The following floating-point exceptions are signalling: IEEE_UNDERFLOW_FLAG IEEE_DENORMAL
Note: The following floating-point exceptions are signalling: IEEE_UNDERFLOW_FLAG IEEE_DENORMAL
Note: The following floating-point exceptions are signalling: IEEE_UNDERFLOW_FLAG IEEE_DENORMAL
Note: The following floating-point exceptions are signalling: IEEE_UNDERFLOW_FLAG IEEE_DENORMAL
Note: The following floating-point exceptions are signalling: IEEE_UNDERFLOW_FLAG IEEE_DENORMAL
Note: The following floating-point exceptions are signalling: IEEE_UNDERFLOW_FLAG IEEE_DENORMAL
Note: The following floating-point exceptions are signalling: IEEE_UNDERFLOW_FLAG IEEE_DENORMAL
Note: The following floating-point exceptions are signalling: IEEE_UNDERFLOW_FLAG IEEE_DENORMAL
Note: The following floating-point exceptions are signalling: IEEE_UNDERFLOW_FLAG IEEE_DENORMAL
Note: The following floating-point exceptions are signalling: IEEE_UNDERFLOW_FLAG IEEE_DENORMAL
Note: The following floating-point exceptions are signalling: IEEE_UNDERFLOW_FLAG IEEE_DENORMAL
Note: The following floating-point exceptions are signalling: IEEE_UNDERFLOW_FLAG IEEE_DENORMAL
Note: The following floating-point exceptions are signalling: IEEE_UNDERFLOW_FLAG IEEE_DENORMAL
Note: The following floating-point exceptions are signalling: IEEE_UNDERFLOW_FLAG IEEE_DENORMAL
Note: The following floating-point exceptions are signalling: IEEE_UNDERFLOW_FLAG IEEE_DENORMAL
Note: The following floating-point exceptions are signalling: IEEE_UNDERFLOW_FLAG IEEE_DENORMAL
Note: The following floating-point exceptions are signalling: IEEE_UNDERFLOW_FLAG IEEE_DENORMAL
Note: The following floating-point exceptions are signalling: IEEE_UNDERFLOW_FLAG IEEE_DENORMAL
Note: The following floating-point exceptions are signalling: IEEE_UNDERFLOW_FLAG IEEE_DENORMAL
Note: The following floating-point exceptions are signalling: IEEE_UNDERFLOW_FLAG IEEE_DENORMAL
Note: The following floating-point exceptions are signalling: IEEE_UNDERFLOW_FLAG IEEE_DENORMAL
Note: The following floating-point exceptions are signalling: IEEE_UNDERFLOW_FLAG IEEE_DENORMAL
Note: The following floating-point exceptions are signalling: IEEE_UNDERFLOW_FLAG IEEE_DENORMAL
Note: The following floating-point exceptions are signalling: IEEE_UNDERFLOW_FLAG IEEE_DENORMAL
Note: The following floating-point exceptions are signalling: IEEE_UNDERFLOW_FLAG IEEE_DENORMAL
Note: The following floating-point exceptions are signalling: IEEE_UNDERFLOW_FLAG IEEE_DENORMAL
Note: The following floating-point exceptions are signalling: IEEE_UNDERFLOW_FLAG IEEE_DENORMAL
Note: The following floating-point exceptions are signalling: IEEE_UNDERFLOW_FLAG IEEE_DENORMAL
Note: The following floating-point exceptions are signalling: IEEE_UNDERFLOW_FLAG IEEE_DENORMAL
Note: The following floating-point exceptions are signalling: IEEE_UNDERFLOW_FLAG IEEE_DENORMAL
Note: The following floating-point exceptions are signalling: IEEE_UNDERFLOW_FLAG IEEE_DENORMAL
Note: The following floating-point exceptions are signalling: IEEE_UNDERFLOW_FLAG IEEE_DENORMAL
Note: The following floating-point exceptions are signalling: IEEE_UNDERFLOW_FLAG IEEE_DENORMAL
Note: The following floating-point exceptions are signalling: IEEE_UNDERFLOW_FLAG IEEE_DENORMAL
Note: The following floating-point exceptions are signalling: IEEE_UNDERFLOW_FLAG IEEE_DENORMAL
Note: The following floating-point exceptions are signalling: IEEE_UNDERFLOW_FLAG IEEE_DENORMAL
Note: The following floating-point exceptions are signalling: IEEE_UNDERFLOW_FLAG IEEE_DENORMAL
Note: The following floating-point exceptions are signalling: IEEE_UNDERFLOW_FLAG IEEE_DENORMAL
Note: The following floating-point exceptions are signalling: IEEE_UNDERFLOW_FLAG IEEE_DENORMAL
Note: The following floating-point exceptions are signalling: IEEE_UNDERFLOW_FLAG IEEE_DENORMAL
Note: The following floating-point exceptions are signalling: IEEE_UNDERFLOW_FLAG IEEE_DENORMAL
Note: The following floating-point exceptions are signalling: IEEE_UNDERFLOW_FLAG IEEE_DENORMAL
Note: The following floating-point exceptions are signalling: IEEE_UNDERFLOW_FLAG IEEE_DENORMAL
Note: The following floating-point exceptions are signalling: IEEE_UNDERFLOW_FLAG IEEE_DENORMAL
Note: The following floating-point exceptions are signalling: IEEE_UNDERFLOW_FLAG IEEE_DENORMAL
Note: The following floating-point exceptions are signalling: IEEE_UNDERFLOW_FLAG IEEE_DENORMAL
Note: The following floating-point exceptions are signalling: IEEE_UNDERFLOW_FLAG IEEE_DENORMAL
Note: The following floating-point exceptions are signalling: IEEE_UNDERFLOW_FLAG IEEE_DENORMAL
Note: The following floating-point exceptions are signalling: IEEE_UNDERFLOW_FLAG IEEE_DENORMAL
Note: The following floating-point exceptions are signalling: IEEE_UNDERFLOW_FLAG IEEE_DENORMAL
Note: The following floating-point exceptions are signalling: IEEE_UNDERFLOW_FLAG IEEE_DENORMAL
Note: The following floating-point exceptions are signalling: IEEE_UNDERFLOW_FLAG IEEE_DENORMAL
Note: The following floating-point exceptions are signalling: IEEE_UNDERFLOW_FLAG IEEE_DENORMAL
Note: The following floating-point exceptions are signalling: IEEE_UNDERFLOW_FLAG IEEE_DENORMAL
Note: The following floating-point exceptions are signalling: IEEE_UNDERFLOW_FLAG IEEE_DENORMAL
Note: The following floating-point exceptions are signalling: IEEE_UNDERFLOW_FLAG IEEE_DENORMAL
Note: The following floating-point exceptions are signalling: IEEE_UNDERFLOW_FLAG IEEE_DENORMAL
Note: The following floating-point exceptions are signalling: IEEE_UNDERFLOW_FLAG IEEE_DENORMAL
Note: The following floating-point exceptions are signalling: IEEE_UNDERFLOW_FLAG IEEE_DENORMAL
Note: The following floating-point exceptions are signalling: IEEE_UNDERFLOW_FLAG IEEE_DENORMAL
Note: The following floating-point exceptions are signalling: IEEE_UNDERFLOW_FLAG IEEE_DENORMAL
Note: The following floating-point exceptions are signalling: IEEE_UNDERFLOW_FLAG IEEE_DENORMAL
Note: The following floating-point exceptions are signalling: IEEE_UNDERFLOW_FLAG IEEE_DENORMAL
Note: The following floating-point exceptions are signalling: IEEE_UNDERFLOW_FLAG IEEE_DENORMAL
Note: The following floating-point exceptions are signalling: IEEE_UNDERFLOW_FLAG IEEE_DENORMAL
Note: The following floating-point exceptions are signalling: IEEE_UNDERFLOW_FLAG IEEE_DENORMAL
Note: The following floating-point exceptions are signalling: IEEE_UNDERFLOW_FLAG IEEE_DENORMAL
Note: The following floating-point exceptions are signalling: IEEE_UNDERFLOW_FLAG IEEE_DENORMAL
Note: The following floating-point exceptions are signalling: IEEE_UNDERFLOW_FLAG IEEE_DENORMAL
Note: The following floating-point exceptions are signalling: IEEE_UNDERFLOW_FLAG IEEE_DENORMAL
Note: The following floating-point exceptions are signalling: IEEE_UNDERFLOW_FLAG IEEE_DENORMAL
Note: The following floating-point exceptions are signalling: IEEE_UNDERFLOW_FLAG IEEE_DENORMAL
Note: The following floating-point exceptions are signalling: IEEE_UNDERFLOW_FLAG IEEE_DENORMAL
Note: The following floating-point exceptions are signalling: IEEE_UNDERFLOW_FLAG IEEE_DENORMAL
Note: The following floating-point exceptions are signalling: IEEE_UNDERFLOW_FLAG IEEE_DENORMAL
Note: The following floating-point exceptions are signalling: IEEE_UNDERFLOW_FLAG IEEE_DENORMAL
Note: The following floating-point exceptions are signalling: IEEE_UNDERFLOW_FLAG IEEE_DENORMAL
Note: The following floating-point exceptions are signalling: IEEE_UNDERFLOW_FLAG IEEE_DENORMAL
Note: The following floating-point exceptions are signalling: IEEE_UNDERFLOW_FLAG IEEE_DENORMAL
Note: The following floating-point exceptions are signalling: IEEE_UNDERFLOW_FLAG IEEE_DENORMAL
Note: The following floating-point exceptions are signalling: IEEE_UNDERFLOW_FLAG IEEE_DENORMAL
Note: The following floating-point exceptions are signalling: IEEE_UNDERFLOW_FLAG IEEE_DENORMAL
Note: The following floating-point exceptions are signalling: IEEE_UNDERFLOW_FLAG IEEE_DENORMAL
Note: The following floating-point exceptions are signalling: IEEE_UNDERFLOW_FLAG IEEE_DENORMAL
Note: The following floating-point exceptions are signalling: IEEE_UNDERFLOW_FLAG IEEE_DENORMAL
Note: The following floating-point exceptions are signalling: IEEE_UNDERFLOW_FLAG IEEE_DENORMAL
Note: The following floating-point exceptions are signalling: IEEE_UNDERFLOW_FLAG IEEE_DENORMAL
Note: The following floating-point exceptions are signalling: IEEE_UNDERFLOW_FLAG IEEE_DENORMAL
Note: The following floating-point exceptions are signalling: IEEE_UNDERFLOW_FLAG IEEE_DENORMAL
Note: The following floating-point exceptions are signalling: IEEE_UNDERFLOW_FLAG IEEE_DENORMAL
Note: The following floating-point exceptions are signalling: IEEE_UNDERFLOW_FLAG IEEE_DENORMAL
Note: The following floating-point exceptions are signalling: IEEE_UNDERFLOW_FLAG IEEE_DENORMAL
Note: The following floating-point exceptions are signalling: IEEE_UNDERFLOW_FLAG IEEE_DENORMAL
Note: The following floating-point exceptions are signalling: IEEE_UNDERFLOW_FLAG IEEE_DENORMAL
Note: The following floating-point exceptions are signalling: IEEE_UNDERFLOW_FLAG IEEE_DENORMAL
Note: The following floating-point exceptions are signalling: IEEE_UNDERFLOW_FLAG IEEE_DENORMAL
Note: The following floating-point exceptions are signalling: IEEE_UNDERFLOW_FLAG IEEE_DENORMAL
Note: The following floating-point exceptions are signalling: IEEE_UNDERFLOW_FLAG IEEE_DENORMAL
Note: The following floating-point exceptions are signalling: IEEE_UNDERFLOW_FLAG IEEE_DENORMAL
