
     Program PWSCF v.6.1 (svn rev. 13369) starts on  2May2017 at 16: 3:30 

     This program is part of the open-source Quantum ESPRESSO suite
     for quantum simulation of materials; please cite
         "P. Giannozzi et al., J. Phys.:Condens. Matter 21 395502 (2009);
          URL http://www.quantum-espresso.org", 
     in publications or presentations arising from this work. More details at
     http://www.quantum-espresso.org/quote

     Parallel version (MPI), running on  1024 processors
     K-points division:     npool     =      16
     R & G space division:  proc/nbgrp/npool/nimage =      64
     Reading input from pw.in

     Current dimensions of program PWSCF are:
     Max number of different atomic species (ntypx) = 10
     Max number of k-points (npk) =  40000
     Max angular momentum in pseudopotentials (lmaxx) =  3

     Subspace diagonalization in iterative solution of the eigenvalue problem:
     one sub-group per band group will be used
     custom distributed-memory algorithm (size of sub-group:  8*  8 procs)

 
     Parallelization info
     --------------------
     sticks:   dense  smooth     PW     G-vecs:    dense   smooth      PW
     Min         273     136     36                31034    10973    1513
     Max         274     137     37                31039    10976    1519
     Sum       17473    8727   2341              1986367   702369   97019
 


     bravais-lattice index     =            0
     lattice parameter (alat)  =      28.4929  a.u.
     unit-cell volume          =   17221.4256 (a.u.)^3
     number of atoms/cell      =          144
     number of atomic types    =            2
     number of electrons       =      1152.00
     number of Kohn-Sham states=          691
     kinetic-energy cutoff     =      45.0000  Ry
     charge density cutoff     =     360.0000  Ry
     convergence threshold     =      1.4E-06
     mixing beta               =       0.3500
     number of iterations used =            8  plain     mixing
     Exchange-correlation      = SLA  PW   PBE  PBE ( 1  4  3  4 0 0)

     celldm(1)=  28.492913  celldm(2)=   0.000000  celldm(3)=   0.000000
     celldm(4)=   0.000000  celldm(5)=   0.000000  celldm(6)=   0.000000

     crystal axes: (cart. coord. in units of alat)
               a(1) = (   1.000000   0.000000   0.000000 )  
               a(2) = (   0.000000   0.702408   0.266165 )  
               a(3) = (   0.000000   0.000000   1.059911 )  

     reciprocal axes: (cart. coord. in units 2 pi/alat)
               b(1) = (  1.000000  0.000000  0.000000 )  
               b(2) = (  0.000000  1.423674  0.000000 )  
               b(3) = (  0.000000 -0.357513  0.943476 )  


     PseudoPot. # 1 for Si read from file:
     ./pseudo/Si.pbe-n-rrkjus_psl.1.0.0.UPF
     MD5 check sum: d928fff27e2cf23ab01de9cd48acd62a
     Pseudo is Ultrasoft + core correction, Zval =  4.0
     Generated using "atomic" code by A. Dal Corso  v.5.1
     Using radial grid of 1141 points,  6 beta functions with: 
                l(1) =   0
                l(2) =   0
                l(3) =   1
                l(4) =   1
                l(5) =   2
                l(6) =   2
     Q(r) pseudized with 0 coefficients 


     PseudoPot. # 2 for Zr read from file:
     ./pseudo/Zr_pbe_v1.uspp.F.UPF
     MD5 check sum: 5db81b1e868ab7776c4564c113de050b
     Pseudo is Ultrasoft + core correction, Zval = 12.0
     Generated by new atomic code, or converted to UPF format
     Using radial grid of  887 points,  6 beta functions with: 
                l(1) =   0
                l(2) =   0
                l(3) =   1
                l(4) =   1
                l(5) =   2
                l(6) =   2
     Q(r) pseudized with  6 coefficients,  rinner =    1.200   1.200   1.200
                                                       1.200   1.200

     atomic species   valence    mass     pseudopotential
        Si             4.00    28.08550     Si( 1.00)
        Zr            12.00    91.22400     Zr( 1.00)

     Starting magnetic structure 
     atomic species   magnetization
        Si           0.000
        Zr           0.417

     No symmetry found


                                    s                        frac. trans.

      isym =  1     identity                                     

 cryst.   s( 1) = (     1          0          0      )
                  (     0          1          0      )
                  (     0          0          1      )

 cart.    s( 1) = (  1.0000000  0.0000000  0.0000000 )
                  (  0.0000000  1.0000000  0.0000000 )
                  (  0.0000000 -0.0000000  1.0000000 )


   Cartesian axes

     site n.     atom                  positions (alat units)
         1           Zr  tau(   1) = (   0.0600390   0.2026925   0.1823806  )
         2           Zr  tau(   2) = (   0.0583031   0.2024820   0.5294863  )
         3           Zr  tau(   3) = (   0.0645079   0.2047530   0.8867295  )
         4           Zr  tau(   4) = (   0.0674080   0.4354037   0.2688258  )
         5           Zr  tau(   5) = (   0.0622072   0.4343371   0.6257549  )
         6           Zr  tau(   6) = (   0.0610856   0.4302865   0.9769583  )
         7           Zr  tau(   7) = (   0.0610811   0.6658715   0.3514398  )
         8           Zr  tau(   8) = (   0.0600519   0.6687996   0.7138705  )
         9           Zr  tau(   9) = (   0.0677565   0.6680841   1.0631245  )
        10           Zr  tau(  10) = (   0.3113778   0.1952392   0.1767419  )
        11           Zr  tau(  11) = (   0.3087878   0.2037258   0.5329710  )
        12           Zr  tau(  12) = (   0.3102462   0.1953458   0.8847729  )
        13           Zr  tau(  13) = (   0.3126065   0.4390940   0.2649307  )
        14           Zr  tau(  14) = (   0.3133854   0.4380484   0.6168313  )
        15           Zr  tau(  15) = (   0.3116158   0.4291664   0.9726454  )
        16           Zr  tau(  16) = (   0.3111810   0.6638518   0.3535087  )
        17           Zr  tau(  17) = (   0.3173842   0.6678495   0.7071845  )
        18           Zr  tau(  18) = (   0.3149300   0.6701685   1.0581046  )
        19           Zr  tau(  19) = (   0.5600427   0.2043708   0.1804887  )
        20           Zr  tau(  20) = (   0.5587581   0.1969489   0.5337247  )
        21           Zr  tau(  21) = (   0.5621030   0.1973213   0.8895160  )
        22           Zr  tau(  22) = (   0.5596873   0.4387258   0.2678280  )
        23           Zr  tau(  23) = (   0.5674439   0.4345514   0.6223639  )
        24           Zr  tau(  24) = (   0.5618754   0.4293549   0.9756393  )
        25           Zr  tau(  25) = (   0.5615434   0.6706228   0.3511473  )
        26           Zr  tau(  26) = (   0.5670913   0.6662007   0.7077045  )
        27           Zr  tau(  27) = (   0.5673904   0.6680850   1.0645144  )
        28           Zr  tau(  28) = (   0.8116062   0.1949331   0.1779607  )
        29           Zr  tau(  29) = (   0.8134797   0.2046024   0.5290351  )
        30           Zr  tau(  30) = (   0.8097120   0.1974535   0.8814129  )
        31           Zr  tau(  31) = (   0.8151114   0.4367118   0.2710792  )
        32           Zr  tau(  32) = (   0.8175841   0.4329118   0.6211190  )
        33           Zr  tau(  33) = (   0.8173180   0.4324095   0.9725577  )
        34           Zr  tau(  34) = (   0.8140145   0.6635915   0.3542615  )
        35           Zr  tau(  35) = (   0.8090750   0.6653596   0.7065157  )
        36           Zr  tau(  36) = (   0.8084730   0.6710923   1.0603009  )
        37           Zr  tau(  37) = (   0.1918300   0.0309677   0.2630997  )
        38           Zr  tau(  38) = (   0.1831938   0.0340586   0.6137972  )
        39           Zr  tau(  39) = (   0.1858369   0.0289871   0.9696391  )
        40           Zr  tau(  40) = (   0.1906934   0.2645613   0.3545986  )
        41           Zr  tau(  41) = (   0.1882438   0.2726982   0.7082123  )
        42           Zr  tau(  42) = (   0.1842574   0.2715251   1.0564493  )
        43           Zr  tau(  43) = (   0.1920679   0.5034189   0.4434767  )
        44           Zr  tau(  44) = (   0.1916450   0.5021196   0.7976484  )
        45           Zr  tau(  45) = (   0.1853314   0.5001343   1.1432951  )
        46           Zr  tau(  46) = (   0.4350348   0.0309386   0.2600237  )
        47           Zr  tau(  47) = (   0.4353431   0.0382541   0.6145827  )
        48           Zr  tau(  48) = (   0.4377477   0.0321026   0.9751508  )
        49           Zr  tau(  49) = (   0.4343654   0.2690207   0.3565016  )
        50           Zr  tau(  50) = (   0.4427659   0.2683250   0.7049978  )
        51           Zr  tau(  51) = (   0.4333277   0.2707302   1.0569257  )
        52           Zr  tau(  52) = (   0.4401636   0.5041364   0.4452262  )
        53           Zr  tau(  53) = (   0.4417913   0.4992727   0.7952207  )
        54           Zr  tau(  54) = (   0.4385574   0.5028940   1.1424817  )
        55           Zr  tau(  55) = (   0.6828114   0.0361165   0.2648828  )
        56           Zr  tau(  56) = (   0.6878913   0.0392854   0.6169316  )
        57           Zr  tau(  57) = (   0.6915312   0.0308610   0.9716433  )
        58           Zr  tau(  58) = (   0.6846103   0.2724963   0.3514552  )
        59           Zr  tau(  59) = (   0.6831040   0.2697293   0.7081218  )
        60           Zr  tau(  60) = (   0.6869500   0.2715959   1.0549418  )
        61           Zr  tau(  61) = (   0.6854225   0.4975259   0.4422048  )
        62           Zr  tau(  62) = (   0.6865761   0.4978236   0.7915895  )
        63           Zr  tau(  63) = (   0.6879017   0.5013437   1.1528525  )
        64           Zr  tau(  64) = (   0.9359630   0.0356472   0.2683945  )
        65           Zr  tau(  65) = (   0.9387762   0.0338075   0.6220429  )
        66           Zr  tau(  66) = (   0.9420886   0.0327115   0.9725346  )
        67           Zr  tau(  67) = (   0.9359904   0.2712041   0.3482617  )
        68           Zr  tau(  68) = (   0.9331142   0.2653169   0.7066188  )
        69           Zr  tau(  69) = (   0.9327946   0.2660315   1.0601887  )
        70           Zr  tau(  70) = (   0.9382599   0.5075067   0.4407046  )
        71           Zr  tau(  71) = (   0.9337460   0.5050385   0.7918150  )
        72           Zr  tau(  72) = (   0.9404354   0.4997159   1.1512529  )
        73           Si  tau(  73) = (   0.1854727   0.0951727   0.0894206  )
        74           Si  tau(  74) = (   0.1852636   0.0972865   0.4415274  )
        75           Si  tau(  75) = (   0.1834795   0.0958489   0.8013862  )
        76           Si  tau(  76) = (   0.1853382   0.3305864   0.1858323  )
        77           Si  tau(  77) = (   0.1897976   0.3375327   0.5339212  )
        78           Si  tau(  78) = (   0.1849142   0.3355126   0.8919351  )
        79           Si  tau(  79) = (   0.1834036   0.5644577   0.2680228  )
        80           Si  tau(  80) = (   0.1905032   0.5648738   0.6274037  )
        81           Si  tau(  81) = (   0.1888088   0.5709479   0.9801378  )
        82           Si  tau(  82) = (   0.4368696   0.0944120   0.0897676  )
        83           Si  tau(  83) = (   0.4358541   0.0991754   0.4411030  )
        84           Si  tau(  84) = (   0.4390806   0.0952302   0.8031139  )
        85           Si  tau(  85) = (   0.4426835   0.3339531   0.1813312  )
        86           Si  tau(  86) = (   0.4322744   0.3319412   0.5346575  )
        87           Si  tau(  87) = (   0.4335915   0.3298456   0.8901263  )
        88           Si  tau(  88) = (   0.4419337   0.5666389   0.2731595  )
        89           Si  tau(  89) = (   0.4379664   0.5620426   0.6216735  )
        90           Si  tau(  90) = (   0.4330794   0.5657111   0.9742244  )
        91           Si  tau(  91) = (   0.6890057   0.0936691   0.0935478  )
        92           Si  tau(  92) = (   0.6828282   0.0979583   0.4485270  )
        93           Si  tau(  93) = (   0.6884286   0.0954663   0.7953296  )
        94           Si  tau(  94) = (   0.6870217   0.3359881   0.1772986  )
        95           Si  tau(  95) = (   0.6863310   0.3363693   0.5386326  )
        96           Si  tau(  96) = (   0.6870349   0.3289487   0.8917263  )
        97           Si  tau(  97) = (   0.6855109   0.5718237   0.2711017  )
        98           Si  tau(  98) = (   0.6839106   0.5673648   0.6274563  )
        99           Si  tau(  99) = (   0.6832820   0.5639112   0.9778536  )
       100           Si  tau( 100) = (   0.9329077   0.0960546   0.0926241  )
       101           Si  tau( 101) = (   0.9410352   0.1026450   0.4457677  )
       102           Si  tau( 102) = (   0.9371618   0.0953743   0.7953121  )
       103           Si  tau( 103) = (   0.9415713   0.3336106   0.1848572  )
       104           Si  tau( 104) = (   0.9427939   0.3324955   0.5347616  )
       105           Si  tau( 105) = (   0.9424163   0.3309423   0.8875353  )
       106           Si  tau( 106) = (   0.9415326   0.5696694   0.2681111  )
       107           Si  tau( 107) = (   0.9369621   0.5671012   0.6288453  )
       108           Si  tau( 108) = (   0.9408998   0.5709975   0.9762198  )
       109           Si  tau( 109) = (   0.0643516   0.1399995   0.3472402  )
       110           Si  tau( 110) = (   0.0671943   0.1378804   0.7028491  )
       111           Si  tau( 111) = (   0.0595634   0.1364256   1.0515049  )
       112           Si  tau( 112) = (   0.0601707   0.3667561   0.4417753  )
       113           Si  tau( 113) = (   0.0601717   0.3684171   0.7958556  )
       114           Si  tau( 114) = (   0.0638963   0.3729172   1.1484025  )
       115           Si  tau( 115) = (   0.0591624   0.5998048   0.5252993  )
       116           Si  tau( 116) = (   0.0593789   0.6049881   0.8840441  )
       117           Si  tau( 117) = (   0.0610169   0.6072647   1.2296114  )
       118           Si  tau( 118) = (   0.3139232   0.1353840   0.3543147  )
       119           Si  tau( 119) = (   0.3122205   0.1331835   0.7073051  )
       120           Si  tau( 120) = (   0.3119578   0.1333452   1.0606589  )
       121           Si  tau( 121) = (   0.3105962   0.3680858   0.4426509  )
       122           Si  tau( 122) = (   0.3168269   0.3717484   0.7890673  )
       123           Si  tau( 123) = (   0.3171072   0.3671991   1.1456800  )
       124           Si  tau( 124) = (   0.3174362   0.6055580   0.5260593  )
       125           Si  tau( 125) = (   0.3170246   0.6012318   0.8812042  )
       126           Si  tau( 126) = (   0.3158623   0.6065204   1.2362386  )
       127           Si  tau( 127) = (   0.5588614   0.1354941   0.3530647  )
       128           Si  tau( 128) = (   0.5619513   0.1390788   0.6986932  )
       129           Si  tau( 129) = (   0.5609879   0.1372023   1.0605781  )
       130           Si  tau( 130) = (   0.5611161   0.3659318   0.4415336  )
       131           Si  tau( 131) = (   0.5624009   0.3650572   0.7940219  )
       132           Si  tau( 132) = (   0.5665274   0.3704686   1.1478667  )
       133           Si  tau( 133) = (   0.5616936   0.5986345   0.5253014  )
       134           Si  tau( 134) = (   0.5612337   0.6044914   0.8850421  )
       135           Si  tau( 135) = (   0.5672288   0.6022856   1.2351983  )
       136           Si  tau( 136) = (   0.8113615   0.1304177   0.3478920  )
       137           Si  tau( 137) = (   0.8166657   0.1371594   0.7053021  )
       138           Si  tau( 138) = (   0.8100480   0.1308615   1.0546895  )
       139           Si  tau( 139) = (   0.8128208   0.3728441   0.4337645  )
       140           Si  tau( 140) = (   0.8095092   0.3666561   0.7945047  )
       141           Si  tau( 141) = (   0.8127213   0.3651186   1.1474154  )
       142           Si  tau( 142) = (   0.8127679   0.6003724   0.5225253  )
       143           Si  tau( 143) = (   0.8149392   0.6072367   0.8830673  )
       144           Si  tau( 144) = (   0.8094511   0.6071092   1.2305604  )

   Crystallographic axes

     site n.     atom                  positions (cryst. coord.)
         1           Zr  tau(   1) = (  0.0600390  0.2885682  0.0996065  )
         2           Zr  tau(   2) = (  0.0583031  0.2882685  0.4271675  )
         3           Zr  tau(   3) = (  0.0645079  0.2915016  0.7634059  )
         4           Zr  tau(   4) = (  0.0674080  0.6198730  0.0979681  )
         5           Zr  tau(   5) = (  0.0622072  0.6183546  0.4351034  )
         6           Zr  tau(   6) = (  0.0610856  0.6125879  0.7679034  )
         7           Zr  tau(   7) = (  0.0610811  0.9479843  0.0935171  )
         8           Zr  tau(   8) = (  0.0600519  0.9521529  0.4344149  )
         9           Zr  tau(   9) = (  0.0677565  0.9511343  0.7641833  )
        10           Zr  tau(  10) = (  0.3113778  0.2779571  0.0969511  )
        11           Zr  tau(  11) = (  0.3087878  0.2900392  0.4300106  )
        12           Zr  tau(  12) = (  0.3102462  0.2781088  0.7649231  )
        13           Zr  tau(  13) = (  0.3126065  0.6251269  0.0929738  )
        14           Zr  tau(  14) = (  0.3133854  0.6236382  0.4253573  )
        15           Zr  tau(  15) = (  0.3116158  0.6109932  0.7642347  )
        16           Zr  tau(  16) = (  0.3111810  0.9451089  0.0961911  )
        17           Zr  tau(  17) = (  0.3173842  0.9508003  0.4284465  )
        18           Zr  tau(  18) = (  0.3149300  0.9541018  0.7587021  )
        19           Zr  tau(  19) = (  0.5600427  0.2909575  0.0972214  )
        20           Zr  tau(  20) = (  0.5587581  0.2803911  0.4331445  )
        21           Zr  tau(  21) = (  0.5621030  0.2809213  0.7686918  )
        22           Zr  tau(  22) = (  0.5596873  0.6246028  0.0958389  )
        23           Zr  tau(  23) = (  0.5674439  0.6186597  0.4318275  )
        24           Zr  tau(  24) = (  0.5618754  0.6112616  0.7669920  )
        25           Zr  tau(  25) = (  0.5615434  0.9547485  0.0915426  )
        26           Zr  tau(  26) = (  0.5670913  0.9484529  0.4295266  )
        27           Zr  tau(  27) = (  0.5673904  0.9511355  0.7654944  )
        28           Zr  tau(  28) = (  0.8116062  0.2775212  0.0982105  )
        29           Zr  tau(  29) = (  0.8134797  0.2912872  0.4259838  )
        30           Zr  tau(  30) = (  0.8097120  0.2811095  0.7609995  )
        31           Zr  tau(  31) = (  0.8151114  0.6217354  0.0996264  )
        32           Zr  tau(  32) = (  0.8175841  0.6163255  0.4312391  )
        33           Zr  tau(  33) = (  0.8173180  0.6156104  0.7629925  )
        34           Zr  tau(  34) = (  0.8140145  0.9447382  0.0969944  )
        35           Zr  tau(  35) = (  0.8090750  0.9472554  0.4287056  )
        36           Zr  tau(  36) = (  0.8084730  0.9554169  0.7604439  )
        37           Zr  tau(  37) = (  0.1918300  0.0440880  0.2371568  )
        38           Zr  tau(  38) = (  0.1831938  0.0484883  0.5669264  )
        39           Zr  tau(  39) = (  0.1858369  0.0412681  0.9044678  )
        40           Zr  tau(  40) = (  0.1906934  0.3766492  0.2399711  )
        41           Zr  tau(  41) = (  0.1882438  0.3882334  0.5706880  )
        42           Zr  tau(  42) = (  0.1842574  0.3865633  0.8996605  )
        43           Zr  tau(  43) = (  0.1920679  0.7167046  0.2384307  )
        44           Zr  tau(  44) = (  0.1916450  0.7148548  0.5730476  )
        45           Zr  tau(  45) = (  0.1853314  0.7120284  0.8998667  )
        46           Zr  tau(  46) = (  0.4350348  0.0440465  0.2342652  )
        47           Zr  tau(  47) = (  0.4353431  0.0544614  0.5661676  )
        48           Zr  tau(  48) = (  0.4377477  0.0457036  0.9085541  )
        49           Zr  tau(  49) = (  0.4343654  0.3829979  0.2401722  )
        50           Zr  tau(  50) = (  0.4427659  0.3820074  0.5692187  )
        51           Zr  tau(  51) = (  0.4333277  0.3854317  0.9003942  )
        52           Zr  tau(  52) = (  0.4401636  0.7177261  0.2398248  )
        53           Zr  tau(  53) = (  0.4417913  0.7108018  0.5717749  )
        54           Zr  tau(  54) = (  0.4385574  0.7159573  0.8981126  )
        55           Zr  tau(  55) = (  0.6828114  0.0514181  0.2369984  )
        56           Zr  tau(  56) = (  0.6878913  0.0559297  0.5680150  )
        57           Zr  tau(  57) = (  0.6915312  0.0439360  0.9056887  )
        58           Zr  tau(  58) = (  0.6846103  0.3879460  0.2341685  )
        59           Zr  tau(  59) = (  0.6831040  0.3840067  0.5716640  )
        60           Zr  tau(  60) = (  0.6869500  0.3866642  0.8982129  )
        61           Zr  tau(  61) = (  0.6854225  0.7083149  0.2393375  )
        62           Zr  tau(  62) = (  0.6865761  0.7087387  0.5688670  )
        63           Zr  tau(  63) = (  0.6879017  0.7137502  0.9084515  )
        64           Zr  tau(  64) = (  0.9359630  0.0507500  0.2404794  )
        65           Zr  tau(  65) = (  0.9387762  0.0481308  0.5747958  )
        66           Zr  tau(  66) = (  0.9420886  0.0465705  0.9058681  )
        67           Zr  tau(  67) = (  0.9359904  0.3861063  0.2316175  )
        68           Zr  tau(  68) = (  0.9331142  0.3777248  0.5718234  )
        69           Zr  tau(  69) = (  0.9327946  0.3787422  0.9051527  )
        70           Zr  tau(  70) = (  0.9382599  0.7225243  0.2343538  )
        71           Zr  tau(  71) = (  0.9337460  0.7190103  0.5665004  )
        72           Zr  tau(  72) = (  0.9404354  0.7114327  0.9075243  )
        73           Si  tau(  73) = (  0.1854727  0.1354949  0.0503407  )
        74           Si  tau(  74) = (  0.1852636  0.1385043  0.3817892  )
        75           Si  tau(  75) = (  0.1834795  0.1364576  0.7218212  )
        76           Si  tau(  76) = (  0.1853382  0.4706474  0.0571393  )
        77           Si  tau(  77) = (  0.1897976  0.4805367  0.3830694  )
        78           Si  tau(  78) = (  0.1849142  0.4776607  0.7215690  )
        79           Si  tau(  79) = (  0.1834036  0.8036039  0.0510720  )
        80           Si  tau(  80) = (  0.1905032  0.8041964  0.3899904  )
        81           Si  tau(  81) = (  0.1888088  0.8128439  0.7206149  )
        82           Si  tau(  82) = (  0.4368696  0.1344119  0.0509400  )
        83           Si  tau(  83) = (  0.4358541  0.1411934  0.3807135  )
        84           Si  tau(  84) = (  0.4390806  0.1355768  0.7236725  )
        85           Si  tau(  85) = (  0.4426835  0.4754405  0.0516890  )
        86           Si  tau(  86) = (  0.4322744  0.4725762  0.3857631  )
        87           Si  tau(  87) = (  0.4335915  0.4695927  0.7218885  )
        88           Si  tau(  88) = (  0.4419337  0.8067093  0.0551385  )
        89           Si  tau(  89) = (  0.4379664  0.8001656  0.3855963  )
        90           Si  tau(  90) = (  0.4330794  0.8053885  0.7169080  )
        91           Si  tau(  91) = (  0.6890057  0.1333543  0.0547721  )
        92           Si  tau(  92) = (  0.6828282  0.1394607  0.3881530  )
        93           Si  tau(  93) = (  0.6884286  0.1359129  0.7162438  )
        94           Si  tau(  94) = (  0.6870217  0.4783376  0.0471567  )
        95           Si  tau(  95) = (  0.6863310  0.4788804  0.3879304  )
        96           Si  tau(  96) = (  0.6870349  0.4683158  0.7237187  )
        97           Si  tau(  97) = (  0.6855109  0.8140907  0.0513434  )
        98           Si  tau(  98) = (  0.6839106  0.8077428  0.3891495  )
        99           Si  tau(  99) = (  0.6832820  0.8028260  0.7209756  )
       100           Si  tau( 100) = (  0.9329077  0.1367505  0.0530478  )
       101           Si  tau( 101) = (  0.9410352  0.1461331  0.3838741  )
       102           Si  tau( 102) = (  0.9371618  0.1357819  0.7162602  )
       103           Si  tau( 103) = (  0.9415713  0.4749528  0.0551381  )
       104           Si  tau( 104) = (  0.9427939  0.4733654  0.3856631  )
       105           Si  tau( 105) = (  0.9424163  0.4711541  0.7190518  )
       106           Si  tau( 106) = (  0.9415326  0.8110237  0.0492920  )
       107           Si  tau( 107) = (  0.9369621  0.8073674  0.3905542  )
       108           Si  tau( 108) = (  0.9408998  0.8129145  0.7169007  )
       109           Si  tau( 109) = (  0.0643516  0.1993136  0.2775611  )
       110           Si  tau( 110) = (  0.0671943  0.1962969  0.6138271  )
       111           Si  tau( 111) = (  0.0595634  0.1942256  0.9432955  )
       112           Si  tau( 112) = (  0.0601707  0.5221412  0.2856842  )
       113           Si  tau( 113) = (  0.0601717  0.5245060  0.6191565  )
       114           Si  tau( 114) = (  0.0638963  0.5309127  0.9501671  )
       115           Si  tau( 115) = (  0.0591624  0.8539267  0.2811691  )
       116           Si  tau( 116) = (  0.0593789  0.8613061  0.6177830  )
       117           Si  tau( 117) = (  0.0610169  0.8645473  0.9430035  )
       118           Si  tau( 118) = (  0.3139232  0.1927428  0.2858858  )
       119           Si  tau( 119) = (  0.3122205  0.1896099  0.6197104  )
       120           Si  tau( 120) = (  0.3119578  0.1898401  0.9530334  )
       121           Si  tau( 121) = (  0.3105962  0.5240344  0.2860349  )
       122           Si  tau( 122) = (  0.3168269  0.5292487  0.6115609  )
       123           Si  tau( 123) = (  0.3171072  0.5227719  0.9496428  )
       124           Si  tau( 124) = (  0.3174362  0.8621174  0.2798293  )
       125           Si  tau( 125) = (  0.3170246  0.8559584  0.6164466  )
       126           Si  tau( 126) = (  0.3158623  0.8634876  0.9495222  )
       127           Si  tau( 127) = (  0.5588614  0.1928995  0.2846671  )
       128           Si  tau( 128) = (  0.5619513  0.1980029  0.6094776  )
       129           Si  tau( 129) = (  0.5609879  0.1953314  0.9515781  )
       130           Si  tau( 130) = (  0.5611161  0.5209678  0.2857508  )
       131           Si  tau( 131) = (  0.5624009  0.5197226  0.6186277  )
       132           Si  tau( 132) = (  0.5665274  0.5274267  0.9505371  )
       133           Si  tau( 133) = (  0.5616936  0.8522606  0.2815894  )
       134           Si  tau( 134) = (  0.5612337  0.8605990  0.6189022  )
       135           Si  tau( 135) = (  0.5672288  0.8574585  0.9500547  )
       136           Si  tau( 136) = (  0.8113615  0.1856724  0.2816017  )
       137           Si  tau( 137) = (  0.8166657  0.1952703  0.6163992  )
       138           Si  tau( 138) = (  0.8100480  0.1863042  0.9482893  )
       139           Si  tau( 139) = (  0.8128208  0.5308086  0.2759497  )
       140           Si  tau( 140) = (  0.8095092  0.5219989  0.6185116  )
       141           Si  tau( 141) = (  0.8127213  0.5198099  0.9520239  )
       142           Si  tau( 142) = (  0.8127679  0.8547348  0.2783490  )
       143           Si  tau( 143) = (  0.8149392  0.8645074  0.6160575  )
       144           Si  tau( 144) = (  0.8094511  0.8643258  0.9439544  )

     number of k points=    76  Marzari-Vanderbilt smearing, width (Ry)=  0.0200
                       cart. coord. in units 2pi/alat
        k(    1) = (   0.0000000   0.0000000   0.0000000), wk =   0.0066667
        k(    2) = (   0.0000000  -0.0715026   0.1886952), wk =   0.0133333
        k(    3) = (   0.0000000  -0.1430053   0.3773903), wk =   0.0133333
        k(    4) = (   0.0000000   0.2372791   0.0000000), wk =   0.0133333
        k(    5) = (   0.0000000   0.1657764   0.1886952), wk =   0.0133333
        k(    6) = (   0.0000000   0.0942738   0.3773903), wk =   0.0133333
        k(    7) = (   0.0000000   0.3802843  -0.3773903), wk =   0.0133333
        k(    8) = (   0.0000000   0.3087817  -0.1886952), wk =   0.0133333
        k(    9) = (   0.0000000   0.4745581   0.0000000), wk =   0.0133333
        k(   10) = (   0.0000000   0.4030555   0.1886952), wk =   0.0133333
        k(   11) = (   0.0000000   0.3315529   0.3773903), wk =   0.0133333
        k(   12) = (   0.0000000   0.6175634  -0.3773903), wk =   0.0133333
        k(   13) = (   0.0000000   0.5460608  -0.1886952), wk =   0.0133333
        k(   14) = (   0.0000000  -0.7118372   0.0000000), wk =   0.0066667
        k(   15) = (   0.0000000  -0.7833398   0.1886952), wk =   0.0133333
        k(   16) = (   0.0000000  -0.8548425   0.3773903), wk =   0.0133333
        k(   17) = (   0.2000000   0.0000000   0.0000000), wk =   0.0133333
        k(   18) = (   0.2000000  -0.0715026   0.1886952), wk =   0.0133333
        k(   19) = (   0.2000000  -0.1430053   0.3773903), wk =   0.0133333
        k(   20) = (   0.2000000   0.2372791   0.0000000), wk =   0.0133333
        k(   21) = (   0.2000000   0.1657764   0.1886952), wk =   0.0133333
        k(   22) = (   0.2000000   0.0942738   0.3773903), wk =   0.0133333
        k(   23) = (   0.2000000   0.3802843  -0.3773903), wk =   0.0133333
        k(   24) = (   0.2000000   0.3087817  -0.1886952), wk =   0.0133333
        k(   25) = (   0.2000000   0.4745581   0.0000000), wk =   0.0133333
        k(   26) = (   0.2000000   0.4030555   0.1886952), wk =   0.0133333
        k(   27) = (   0.2000000   0.3315529   0.3773903), wk =   0.0133333
        k(   28) = (   0.2000000   0.6175634  -0.3773903), wk =   0.0133333
        k(   29) = (   0.2000000   0.5460608  -0.1886952), wk =   0.0133333
        k(   30) = (   0.2000000  -0.7118372   0.0000000), wk =   0.0133333
        k(   31) = (   0.2000000  -0.7833398   0.1886952), wk =   0.0133333
        k(   32) = (   0.2000000  -0.8548425   0.3773903), wk =   0.0133333
        k(   33) = (   0.4000000   0.0000000   0.0000000), wk =   0.0133333
        k(   34) = (   0.4000000  -0.0715026   0.1886952), wk =   0.0133333
        k(   35) = (   0.4000000  -0.1430053   0.3773903), wk =   0.0133333
        k(   36) = (   0.4000000   0.2372791   0.0000000), wk =   0.0133333
        k(   37) = (   0.4000000   0.1657764   0.1886952), wk =   0.0133333
        k(   38) = (   0.4000000   0.0942738   0.3773903), wk =   0.0133333
        k(   39) = (   0.4000000   0.3802843  -0.3773903), wk =   0.0133333
        k(   40) = (   0.4000000   0.3087817  -0.1886952), wk =   0.0133333
        k(   41) = (   0.4000000   0.4745581   0.0000000), wk =   0.0133333
        k(   42) = (   0.4000000   0.4030555   0.1886952), wk =   0.0133333
        k(   43) = (   0.4000000   0.3315529   0.3773903), wk =   0.0133333
        k(   44) = (   0.4000000   0.6175634  -0.3773903), wk =   0.0133333
        k(   45) = (   0.4000000   0.5460608  -0.1886952), wk =   0.0133333
        k(   46) = (   0.4000000  -0.7118372   0.0000000), wk =   0.0133333
        k(   47) = (   0.4000000  -0.7833398   0.1886952), wk =   0.0133333
        k(   48) = (   0.4000000  -0.8548425   0.3773903), wk =   0.0133333
        k(   49) = (   0.2000000   0.0715026  -0.1886952), wk =   0.0133333
        k(   50) = (   0.2000000   0.1430053  -0.3773903), wk =   0.0133333
        k(   51) = (   0.2000000  -0.2372791   0.0000000), wk =   0.0133333
        k(   52) = (   0.2000000  -0.1657764  -0.1886952), wk =   0.0133333
        k(   53) = (   0.2000000  -0.0942738  -0.3773903), wk =   0.0133333
        k(   54) = (   0.2000000  -0.3802843   0.3773903), wk =   0.0133333
        k(   55) = (   0.2000000  -0.3087817   0.1886952), wk =   0.0133333
        k(   56) = (   0.2000000  -0.4745581   0.0000000), wk =   0.0133333
        k(   57) = (   0.2000000  -0.4030555  -0.1886952), wk =   0.0133333
        k(   58) = (   0.2000000  -0.3315529  -0.3773903), wk =   0.0133333
        k(   59) = (   0.2000000  -0.6175634   0.3773903), wk =   0.0133333
        k(   60) = (   0.2000000  -0.5460608   0.1886952), wk =   0.0133333
        k(   61) = (   0.2000000   0.7833398  -0.1886952), wk =   0.0133333
        k(   62) = (   0.2000000   0.8548425  -0.3773903), wk =   0.0133333
        k(   63) = (   0.4000000   0.0715026  -0.1886952), wk =   0.0133333
        k(   64) = (   0.4000000   0.1430053  -0.3773903), wk =   0.0133333
        k(   65) = (   0.4000000  -0.2372791   0.0000000), wk =   0.0133333
        k(   66) = (   0.4000000  -0.1657764  -0.1886952), wk =   0.0133333
        k(   67) = (   0.4000000  -0.0942738  -0.3773903), wk =   0.0133333
        k(   68) = (   0.4000000  -0.3802843   0.3773903), wk =   0.0133333
        k(   69) = (   0.4000000  -0.3087817   0.1886952), wk =   0.0133333
        k(   70) = (   0.4000000  -0.4745581   0.0000000), wk =   0.0133333
        k(   71) = (   0.4000000  -0.4030555  -0.1886952), wk =   0.0133333
        k(   72) = (   0.4000000  -0.3315529  -0.3773903), wk =   0.0133333
        k(   73) = (   0.4000000  -0.6175634   0.3773903), wk =   0.0133333
        k(   74) = (   0.4000000  -0.5460608   0.1886952), wk =   0.0133333
        k(   75) = (   0.4000000   0.7833398  -0.1886952), wk =   0.0133333
        k(   76) = (   0.4000000   0.8548425  -0.3773903), wk =   0.0133333

                       cryst. coord.
        k(    1) = (   0.0000000   0.0000000   0.0000000), wk =   0.0066667
        k(    2) = (   0.0000000  -0.0000000   0.2000000), wk =   0.0133333
        k(    3) = (   0.0000000  -0.0000000   0.4000000), wk =   0.0133333
        k(    4) = (   0.0000000   0.1666667   0.0000000), wk =   0.0133333
        k(    5) = (   0.0000000   0.1666667   0.2000000), wk =   0.0133333
        k(    6) = (   0.0000000   0.1666667   0.4000000), wk =   0.0133333
        k(    7) = (   0.0000000   0.1666667  -0.4000000), wk =   0.0133333
        k(    8) = (   0.0000000   0.1666667  -0.2000000), wk =   0.0133333
        k(    9) = (   0.0000000   0.3333333   0.0000000), wk =   0.0133333
        k(   10) = (   0.0000000   0.3333333   0.2000000), wk =   0.0133333
        k(   11) = (   0.0000000   0.3333333   0.4000000), wk =   0.0133333
        k(   12) = (   0.0000000   0.3333333  -0.4000000), wk =   0.0133333
        k(   13) = (   0.0000000   0.3333333  -0.2000000), wk =   0.0133333
        k(   14) = (   0.0000000  -0.5000000   0.0000000), wk =   0.0066667
        k(   15) = (   0.0000000  -0.5000000   0.2000000), wk =   0.0133333
        k(   16) = (   0.0000000  -0.5000000   0.4000000), wk =   0.0133333
        k(   17) = (   0.2000000   0.0000000   0.0000000), wk =   0.0133333
        k(   18) = (   0.2000000  -0.0000000   0.2000000), wk =   0.0133333
        k(   19) = (   0.2000000  -0.0000000   0.4000000), wk =   0.0133333
        k(   20) = (   0.2000000   0.1666667   0.0000000), wk =   0.0133333
        k(   21) = (   0.2000000   0.1666667   0.2000000), wk =   0.0133333
        k(   22) = (   0.2000000   0.1666667   0.4000000), wk =   0.0133333
        k(   23) = (   0.2000000   0.1666667  -0.4000000), wk =   0.0133333
        k(   24) = (   0.2000000   0.1666667  -0.2000000), wk =   0.0133333
        k(   25) = (   0.2000000   0.3333333   0.0000000), wk =   0.0133333
        k(   26) = (   0.2000000   0.3333333   0.2000000), wk =   0.0133333
        k(   27) = (   0.2000000   0.3333333   0.4000000), wk =   0.0133333
        k(   28) = (   0.2000000   0.3333333  -0.4000000), wk =   0.0133333
        k(   29) = (   0.2000000   0.3333333  -0.2000000), wk =   0.0133333
        k(   30) = (   0.2000000  -0.5000000   0.0000000), wk =   0.0133333
        k(   31) = (   0.2000000  -0.5000000   0.2000000), wk =   0.0133333
        k(   32) = (   0.2000000  -0.5000000   0.4000000), wk =   0.0133333
        k(   33) = (   0.4000000   0.0000000   0.0000000), wk =   0.0133333
        k(   34) = (   0.4000000  -0.0000000   0.2000000), wk =   0.0133333
        k(   35) = (   0.4000000  -0.0000000   0.4000000), wk =   0.0133333
        k(   36) = (   0.4000000   0.1666667   0.0000000), wk =   0.0133333
        k(   37) = (   0.4000000   0.1666667   0.2000000), wk =   0.0133333
        k(   38) = (   0.4000000   0.1666667   0.4000000), wk =   0.0133333
        k(   39) = (   0.4000000   0.1666667  -0.4000000), wk =   0.0133333
        k(   40) = (   0.4000000   0.1666667  -0.2000000), wk =   0.0133333
        k(   41) = (   0.4000000   0.3333333   0.0000000), wk =   0.0133333
        k(   42) = (   0.4000000   0.3333333   0.2000000), wk =   0.0133333
        k(   43) = (   0.4000000   0.3333333   0.4000000), wk =   0.0133333
        k(   44) = (   0.4000000   0.3333333  -0.4000000), wk =   0.0133333
        k(   45) = (   0.4000000   0.3333333  -0.2000000), wk =   0.0133333
        k(   46) = (   0.4000000  -0.5000000   0.0000000), wk =   0.0133333
        k(   47) = (   0.4000000  -0.5000000   0.2000000), wk =   0.0133333
        k(   48) = (   0.4000000  -0.5000000   0.4000000), wk =   0.0133333
        k(   49) = (   0.2000000   0.0000000  -0.2000000), wk =   0.0133333
        k(   50) = (   0.2000000   0.0000000  -0.4000000), wk =   0.0133333
        k(   51) = (   0.2000000  -0.1666667   0.0000000), wk =   0.0133333
        k(   52) = (   0.2000000  -0.1666667  -0.2000000), wk =   0.0133333
        k(   53) = (   0.2000000  -0.1666667  -0.4000000), wk =   0.0133333
        k(   54) = (   0.2000000  -0.1666667   0.4000000), wk =   0.0133333
        k(   55) = (   0.2000000  -0.1666667   0.2000000), wk =   0.0133333
        k(   56) = (   0.2000000  -0.3333333   0.0000000), wk =   0.0133333
        k(   57) = (   0.2000000  -0.3333333  -0.2000000), wk =   0.0133333
        k(   58) = (   0.2000000  -0.3333333  -0.4000000), wk =   0.0133333
        k(   59) = (   0.2000000  -0.3333333   0.4000000), wk =   0.0133333
        k(   60) = (   0.2000000  -0.3333333   0.2000000), wk =   0.0133333
        k(   61) = (   0.2000000   0.5000000  -0.2000000), wk =   0.0133333
        k(   62) = (   0.2000000   0.5000000  -0.4000000), wk =   0.0133333
        k(   63) = (   0.4000000   0.0000000  -0.2000000), wk =   0.0133333
        k(   64) = (   0.4000000   0.0000000  -0.4000000), wk =   0.0133333
        k(   65) = (   0.4000000  -0.1666667   0.0000000), wk =   0.0133333
        k(   66) = (   0.4000000  -0.1666667  -0.2000000), wk =   0.0133333
        k(   67) = (   0.4000000  -0.1666667  -0.4000000), wk =   0.0133333
        k(   68) = (   0.4000000  -0.1666667   0.4000000), wk =   0.0133333
        k(   69) = (   0.4000000  -0.1666667   0.2000000), wk =   0.0133333
        k(   70) = (   0.4000000  -0.3333333   0.0000000), wk =   0.0133333
        k(   71) = (   0.4000000  -0.3333333  -0.2000000), wk =   0.0133333
        k(   72) = (   0.4000000  -0.3333333  -0.4000000), wk =   0.0133333
        k(   73) = (   0.4000000  -0.3333333   0.4000000), wk =   0.0133333
        k(   74) = (   0.4000000  -0.3333333   0.2000000), wk =   0.0133333
        k(   75) = (   0.4000000   0.5000000  -0.2000000), wk =   0.0133333
        k(   76) = (   0.4000000   0.5000000  -0.4000000), wk =   0.0133333

     Dense  grid:  1986367 G-vectors     FFT dimensions: ( 180, 135, 192)

     Smooth grid:   702369 G-vectors     FFT dimensions: ( 125,  96, 135)

     Estimated max dynamical RAM per process >     389.85MB

     Estimated total allocated dynamical RAM >  399210.53MB
     Generating pointlists ...
     new r_m :   0.0631 (alat units)  1.7973 (a.u.) for type    1
     new r_m :   0.0713 (alat units)  2.0308 (a.u.) for type    2

     Initial potential from superposition of free atoms
     Check: negative starting charge=(component1):   -3.091691
     Check: negative starting charge=(component2):   -1.260177

     starting charge 1151.80499, renormalised to 1152.00000

     negative rho (up, down):  3.092E+00 1.260E+00
     Starting wfc are 1224 randomized atomic wfcs

     total cpu time spent up to now is      161.6 secs

     per-process dynamical memory:   310.0 Mb

     Self-consistent Calculation

     iteration #  1     ecut=    45.00 Ry     beta=0.35
     Davidson diagonalization with overlap
     ethr =  1.00E-02,  avg # of iterations =  2.5

     negative rho (up, down):  2.784E+00 1.579E+00

     total cpu time spent up to now is      466.5 secs

     total energy              =   -7960.72182772 Ry
     Harris-Foulkes estimate   =   -7952.13873791 Ry
     estimated scf accuracy    <      13.25214037 Ry

     total magnetization       =    58.76 Bohr mag/cell
     absolute magnetization    =    71.04 Bohr mag/cell

     iteration #  2     ecut=    45.00 Ry     beta=0.35
     Davidson diagonalization with overlap
     ethr =  1.15E-03,  avg # of iterations =  2.0

     negative rho (up, down):  2.656E+00 1.720E+00

     total cpu time spent up to now is      712.3 secs

     total energy              =   -7963.19027984 Ry
     Harris-Foulkes estimate   =   -7961.89442868 Ry
     estimated scf accuracy    <      10.10140673 Ry

     total magnetization       =    41.59 Bohr mag/cell
     absolute magnetization    =    54.01 Bohr mag/cell

     iteration #  3     ecut=    45.00 Ry     beta=0.35
     Davidson diagonalization with overlap
     ethr =  8.77E-04,  avg # of iterations =  5.0

     negative rho (up, down):  2.472E+00 1.922E+00

     total cpu time spent up to now is     1160.7 secs

     total energy              =   -7963.77575588 Ry
     Harris-Foulkes estimate   =   -7967.80521039 Ry
     estimated scf accuracy    <      76.32239323 Ry

     total magnetization       =    41.11 Bohr mag/cell
     absolute magnetization    =    50.25 Bohr mag/cell

     iteration #  4     ecut=    45.00 Ry     beta=0.35
     Davidson diagonalization with overlap
     ethr =  8.77E-04,  avg # of iterations =  5.3

     negative rho (up, down):  2.352E+00 2.054E+00

     total cpu time spent up to now is     1682.0 secs

     total energy              =   -7966.21957598 Ry
     Harris-Foulkes estimate   =   -7971.07602227 Ry
     estimated scf accuracy    <      75.16991343 Ry

     total magnetization       =    28.03 Bohr mag/cell
     absolute magnetization    =    35.83 Bohr mag/cell

     iteration #  5     ecut=    45.00 Ry     beta=0.35
     Davidson diagonalization with overlap
     ethr =  8.77E-04,  avg # of iterations =  4.5

     negative rho (up, down):  2.270E+00 2.146E+00

     total cpu time spent up to now is     2107.8 secs

     total energy              =   -7969.99891591 Ry
     Harris-Foulkes estimate   =   -7970.08812597 Ry
     estimated scf accuracy    <       4.77111801 Ry

     total magnetization       =    13.25 Bohr mag/cell
     absolute magnetization    =    21.87 Bohr mag/cell

     iteration #  6     ecut=    45.00 Ry     beta=0.35
     Davidson diagonalization with overlap
     ethr =  4.14E-04,  avg # of iterations =  3.3

     negative rho (up, down):  2.223E+00 2.201E+00

     total cpu time spent up to now is     2418.6 secs

     total energy              =   -7970.49620536 Ry
     Harris-Foulkes estimate   =   -7970.58865332 Ry
     estimated scf accuracy    <       1.71997699 Ry

     total magnetization       =     8.02 Bohr mag/cell
     absolute magnetization    =    15.34 Bohr mag/cell

     iteration #  7     ecut=    45.00 Ry     beta=0.35
     Davidson diagonalization with overlap
     ethr =  1.49E-04,  avg # of iterations =  7.0

     negative rho (up, down):  2.205E+00 2.222E+00

     total cpu time spent up to now is     2948.1 secs

     total energy              =   -7970.52126995 Ry
     Harris-Foulkes estimate   =   -7970.94032247 Ry
     estimated scf accuracy    <       5.10736926 Ry

     total magnetization       =     5.08 Bohr mag/cell
     absolute magnetization    =    10.59 Bohr mag/cell

     iteration #  8     ecut=    45.00 Ry     beta=0.35
     Davidson diagonalization with overlap
     ethr =  1.49E-04,  avg # of iterations =  7.1

     negative rho (up, down):  2.196E+00 2.234E+00

     total cpu time spent up to now is     3408.2 secs

     total energy              =   -7970.77500042 Ry
     Harris-Foulkes estimate   =   -7970.84239697 Ry
     estimated scf accuracy    <       0.79415373 Ry

     total magnetization       =     3.43 Bohr mag/cell
     absolute magnetization    =     8.26 Bohr mag/cell

     iteration #  9     ecut=    45.00 Ry     beta=0.35
     Davidson diagonalization with overlap
     ethr =  6.89E-05,  avg # of iterations =  3.0

     negative rho (up, down):  2.196E+00 2.235E+00

     total cpu time spent up to now is     3683.4 secs

     total energy              =   -7970.83070503 Ry
     Harris-Foulkes estimate   =   -7970.83540745 Ry
     estimated scf accuracy    <       0.08307116 Ry

     total magnetization       =     2.41 Bohr mag/cell
     absolute magnetization    =     6.59 Bohr mag/cell

     iteration # 10     ecut=    45.00 Ry     beta=0.35
     Davidson diagonalization with overlap
     ethr =  7.21E-06,  avg # of iterations =  9.8

     negative rho (up, down):  2.198E+00 2.233E+00

     total cpu time spent up to now is     4462.5 secs

     total energy              =   -7970.84585644 Ry
     Harris-Foulkes estimate   =   -7970.85275193 Ry
     estimated scf accuracy    <       0.15943659 Ry

     total magnetization       =     2.06 Bohr mag/cell
     absolute magnetization    =     5.63 Bohr mag/cell

     iteration # 11     ecut=    45.00 Ry     beta=0.35
     Davidson diagonalization with overlap
     ethr =  7.21E-06,  avg # of iterations =  9.6

     negative rho (up, down):  2.199E+00 2.233E+00

     total cpu time spent up to now is     5181.2 secs

     total energy              =   -7970.85712175 Ry
     Harris-Foulkes estimate   =   -7970.85941644 Ry
     estimated scf accuracy    <       0.07043879 Ry

     total magnetization       =     1.73 Bohr mag/cell
     absolute magnetization    =     4.85 Bohr mag/cell

     iteration # 12     ecut=    45.00 Ry     beta=0.35
     Davidson diagonalization with overlap
     ethr =  6.11E-06,  avg # of iterations =  3.6

     negative rho (up, down):  2.202E+00 2.230E+00

     total cpu time spent up to now is     5501.8 secs

     total energy              =   -7970.86873348 Ry
     Harris-Foulkes estimate   =   -7970.86240133 Ry
     estimated scf accuracy    <       0.00933917 Ry

     total magnetization       =     1.50 Bohr mag/cell
     absolute magnetization    =     4.35 Bohr mag/cell

     iteration # 13     ecut=    45.00 Ry     beta=0.35
     Davidson diagonalization with overlap
     ethr =  8.11E-07,  avg # of iterations =  6.9

     negative rho (up, down):  2.203E+00 2.230E+00

     total cpu time spent up to now is     6086.5 secs

     total energy              =   -7970.87339908 Ry
     Harris-Foulkes estimate   =   -7970.87087800 Ry
     estimated scf accuracy    <       0.01002632 Ry

     total magnetization       =     1.21 Bohr mag/cell
     absolute magnetization    =     3.50 Bohr mag/cell

     iteration # 14     ecut=    45.00 Ry     beta=0.35
     Davidson diagonalization with overlap
     ethr =  8.11E-07,  avg # of iterations =  3.8

     negative rho (up, down):  2.205E+00 2.228E+00

     total cpu time spent up to now is     6475.8 secs

     total energy              =   -7970.87605109 Ry
     Harris-Foulkes estimate   =   -7970.87539990 Ry
     estimated scf accuracy    <       0.01884540 Ry

     total magnetization       =     0.97 Bohr mag/cell
     absolute magnetization    =     2.94 Bohr mag/cell

     iteration # 15     ecut=    45.00 Ry     beta=0.35
     Davidson diagonalization with overlap
     ethr =  8.11E-07,  avg # of iterations =  3.5

     negative rho (up, down):  2.208E+00 2.226E+00

     total cpu time spent up to now is     6826.7 secs

     total energy              =   -7970.88134549 Ry
     Harris-Foulkes estimate   =   -7970.87813919 Ry
     estimated scf accuracy    <       0.01628009 Ry

     total magnetization       =     0.84 Bohr mag/cell
     absolute magnetization    =     2.58 Bohr mag/cell

     iteration # 16     ecut=    45.00 Ry     beta=0.35
     Davidson diagonalization with overlap
     ethr =  8.11E-07,  avg # of iterations =  3.0

     negative rho (up, down):  2.209E+00 2.225E+00

     total cpu time spent up to now is     7123.3 secs

     total energy              =   -7970.88232994 Ry
     Harris-Foulkes estimate   =   -7970.88322772 Ry
     estimated scf accuracy    <       0.00287670 Ry

     total magnetization       =     0.41 Bohr mag/cell
     absolute magnetization    =     1.47 Bohr mag/cell

     iteration # 17     ecut=    45.00 Ry     beta=0.35
     Davidson diagonalization with overlap
     ethr =  2.50E-07,  avg # of iterations =  3.0

     negative rho (up, down):  2.209E+00 2.224E+00

     total cpu time spent up to now is     7411.0 secs

     total energy              =   -7970.88262650 Ry
     Harris-Foulkes estimate   =   -7970.88320550 Ry
     estimated scf accuracy    <       0.01033657 Ry

     total magnetization       =     0.47 Bohr mag/cell
     absolute magnetization    =     1.55 Bohr mag/cell

     iteration # 18     ecut=    45.00 Ry     beta=0.35
     Davidson diagonalization with overlap
     ethr =  2.50E-07,  avg # of iterations =  3.0

     negative rho (up, down):  2.212E+00 2.222E+00

     total cpu time spent up to now is     7697.3 secs

     total energy              =   -7970.88450453 Ry
     Harris-Foulkes estimate   =   -7970.88369364 Ry
     estimated scf accuracy    <       0.00804961 Ry

     total magnetization       =     0.42 Bohr mag/cell
     absolute magnetization    =     1.40 Bohr mag/cell

     iteration # 19     ecut=    45.00 Ry     beta=0.35
     Davidson diagonalization with overlap
     ethr =  2.50E-07,  avg # of iterations =  3.0

     negative rho (up, down):  2.213E+00 2.221E+00

     total cpu time spent up to now is     7999.7 secs

     total energy              =   -7970.88531849 Ry
     Harris-Foulkes estimate   =   -7970.88532373 Ry
     estimated scf accuracy    <       0.00189092 Ry

     total magnetization       =     0.17 Bohr mag/cell
     absolute magnetization    =     0.70 Bohr mag/cell

     iteration # 20     ecut=    45.00 Ry     beta=0.35
     Davidson diagonalization with overlap
     ethr =  1.64E-07,  avg # of iterations =  2.1

     negative rho (up, down):  2.213E+00 2.221E+00

     total cpu time spent up to now is     8243.6 secs

     total energy              =   -7970.88544351 Ry
     Harris-Foulkes estimate   =   -7970.88552756 Ry
     estimated scf accuracy    <       0.00080992 Ry

     total magnetization       =     0.12 Bohr mag/cell
     absolute magnetization    =     0.55 Bohr mag/cell

     iteration # 21     ecut=    45.00 Ry     beta=0.35
     Davidson diagonalization with overlap
     ethr =  7.03E-08,  avg # of iterations =  3.0

     negative rho (up, down):  2.214E+00 2.220E+00

     total cpu time spent up to now is     8511.9 secs

     total energy              =   -7970.88556185 Ry
     Harris-Foulkes estimate   =   -7970.88560648 Ry
     estimated scf accuracy    <       0.00186838 Ry

     total magnetization       =     0.12 Bohr mag/cell
     absolute magnetization    =     0.53 Bohr mag/cell

     iteration # 22     ecut=    45.00 Ry     beta=0.35
     Davidson diagonalization with overlap
     ethr =  7.03E-08,  avg # of iterations =  2.7

     negative rho (up, down):  2.215E+00 2.219E+00

     total cpu time spent up to now is     8774.3 secs

     total energy              =   -7970.88576639 Ry
     Harris-Foulkes estimate   =   -7970.88569882 Ry
     estimated scf accuracy    <       0.00031280 Ry

     total magnetization       =     0.09 Bohr mag/cell
     absolute magnetization    =     0.42 Bohr mag/cell

     iteration # 23     ecut=    45.00 Ry     beta=0.35
     Davidson diagonalization with overlap
     ethr =  2.72E-08,  avg # of iterations =  3.0

     negative rho (up, down):  2.215E+00 2.219E+00

     total cpu time spent up to now is     9065.9 secs

     total energy              =   -7970.88580451 Ry
     Harris-Foulkes estimate   =   -7970.88582082 Ry
     estimated scf accuracy    <       0.00019111 Ry

     total magnetization       =     0.05 Bohr mag/cell
     absolute magnetization    =     0.27 Bohr mag/cell

     iteration # 24     ecut=    45.00 Ry     beta=0.35
     Davidson diagonalization with overlap
     ethr =  1.66E-08,  avg # of iterations =  3.0

     negative rho (up, down):  2.216E+00 2.218E+00

     total cpu time spent up to now is     9351.0 secs

     total energy              =   -7970.88583680 Ry
     Harris-Foulkes estimate   =   -7970.88585720 Ry
     estimated scf accuracy    <       0.00066554 Ry

     total magnetization       =     0.05 Bohr mag/cell
     absolute magnetization    =     0.25 Bohr mag/cell

     iteration # 25     ecut=    45.00 Ry     beta=0.35
     Davidson diagonalization with overlap
     ethr =  1.66E-08,  avg # of iterations =  3.0

     negative rho (up, down):  2.215E+00 2.218E+00

     total cpu time spent up to now is     9640.8 secs

     total energy              =   -7970.88582130 Ry
     Harris-Foulkes estimate   =   -7970.88588976 Ry
     estimated scf accuracy    <       0.00026327 Ry

     total magnetization       =     0.02 Bohr mag/cell
     absolute magnetization    =     0.17 Bohr mag/cell

     iteration # 26     ecut=    45.00 Ry     beta=0.35
     Davidson diagonalization with overlap
     ethr =  1.66E-08,  avg # of iterations =  2.5

     negative rho (up, down):  2.216E+00 2.218E+00

     total cpu time spent up to now is     9905.4 secs

     total energy              =   -7970.88587795 Ry
     Harris-Foulkes estimate   =   -7970.88584954 Ry
     estimated scf accuracy    <       0.00009694 Ry

     total magnetization       =     0.05 Bohr mag/cell
     absolute magnetization    =     0.23 Bohr mag/cell

     iteration # 27     ecut=    45.00 Ry     beta=0.35
     Davidson diagonalization with overlap
     ethr =  8.42E-09,  avg # of iterations =  3.0

     negative rho (up, down):  2.216E+00 2.218E+00

     total cpu time spent up to now is    10191.9 secs

     total energy              =   -7970.88589698 Ry
     Harris-Foulkes estimate   =   -7970.88589629 Ry
     estimated scf accuracy    <       0.00010637 Ry

     total magnetization       =     0.03 Bohr mag/cell
     absolute magnetization    =     0.15 Bohr mag/cell

     iteration # 28     ecut=    45.00 Ry     beta=0.35
     Davidson diagonalization with overlap
     ethr =  8.42E-09,  avg # of iterations =  2.6

     negative rho (up, down):  2.216E+00 2.218E+00

     total cpu time spent up to now is    10445.7 secs

     total energy              =   -7970.88589590 Ry
     Harris-Foulkes estimate   =   -7970.88591155 Ry
     estimated scf accuracy    <       0.00011729 Ry

     total magnetization       =     0.02 Bohr mag/cell
     absolute magnetization    =     0.11 Bohr mag/cell

     iteration # 29     ecut=    45.00 Ry     beta=0.35
     Davidson diagonalization with overlap
     ethr =  8.42E-09,  avg # of iterations =  2.0

     negative rho (up, down):  2.216E+00 2.218E+00

     total cpu time spent up to now is    10672.1 secs

     total energy              =   -7970.88590249 Ry
     Harris-Foulkes estimate   =   -7970.88590492 Ry
     estimated scf accuracy    <       0.00003894 Ry

     total magnetization       =     0.02 Bohr mag/cell
     absolute magnetization    =     0.12 Bohr mag/cell

     iteration # 30     ecut=    45.00 Ry     beta=0.35
     Davidson diagonalization with overlap
     ethr =  3.38E-09,  avg # of iterations =  2.5

     negative rho (up, down):  2.216E+00 2.217E+00

     total cpu time spent up to now is    10929.1 secs

     total energy              =   -7970.88590978 Ry
     Harris-Foulkes estimate   =   -7970.88590799 Ry
     estimated scf accuracy    <       0.00003469 Ry

     total magnetization       =     0.02 Bohr mag/cell
     absolute magnetization    =     0.11 Bohr mag/cell

     iteration # 31     ecut=    45.00 Ry     beta=0.35
     Davidson diagonalization with overlap
     ethr =  3.01E-09,  avg # of iterations =  2.4

     negative rho (up, down):  2.217E+00 2.217E+00

     total cpu time spent up to now is    11185.2 secs

     total energy              =   -7970.88591451 Ry
     Harris-Foulkes estimate   =   -7970.88591437 Ry
     estimated scf accuracy    <       0.00003808 Ry

     total magnetization       =     0.02 Bohr mag/cell
     absolute magnetization    =     0.09 Bohr mag/cell

     iteration # 32     ecut=    45.00 Ry     beta=0.35
     Davidson diagonalization with overlap
     ethr =  3.01E-09,  avg # of iterations =  2.0

     negative rho (up, down):  2.217E+00 2.217E+00

     total cpu time spent up to now is    11411.2 secs

     total energy              =   -7970.88591579 Ry
     Harris-Foulkes estimate   =   -7970.88591784 Ry
     estimated scf accuracy    <       0.00001094 Ry

     total magnetization       =     0.01 Bohr mag/cell
     absolute magnetization    =     0.07 Bohr mag/cell

     iteration # 33     ecut=    45.00 Ry     beta=0.35
     Davidson diagonalization with overlap
     ethr =  9.50E-10,  avg # of iterations =  2.9

     negative rho (up, down):  2.217E+00 2.217E+00

     total cpu time spent up to now is    11674.0 secs

     total energy              =   -7970.88591921 Ry
     Harris-Foulkes estimate   =   -7970.88591726 Ry
     estimated scf accuracy    <       0.00000627 Ry

     total magnetization       =     0.01 Bohr mag/cell
     absolute magnetization    =     0.07 Bohr mag/cell

     iteration # 34     ecut=    45.00 Ry     beta=0.35
     Davidson diagonalization with overlap
     ethr =  5.44E-10,  avg # of iterations =  3.0

     negative rho (up, down):  2.217E+00 2.217E+00

     total cpu time spent up to now is    11958.3 secs

     total energy              =   -7970.88591934 Ry
     Harris-Foulkes estimate   =   -7970.88592044 Ry
     estimated scf accuracy    <       0.00001070 Ry

     total magnetization       =     0.01 Bohr mag/cell
     absolute magnetization    =     0.06 Bohr mag/cell

     iteration # 35     ecut=    45.00 Ry     beta=0.35
     Davidson diagonalization with overlap
     ethr =  5.44E-10,  avg # of iterations =  2.2

     negative rho (up, down):  2.217E+00 2.217E+00

     total cpu time spent up to now is    12211.6 secs

     total energy              =   -7970.88592100 Ry
     Harris-Foulkes estimate   =   -7970.88592027 Ry
     estimated scf accuracy    <       0.00000577 Ry

     total magnetization       =     0.01 Bohr mag/cell
     absolute magnetization    =     0.05 Bohr mag/cell

     iteration # 36     ecut=    45.00 Ry     beta=0.35
     Davidson diagonalization with overlap
     ethr =  5.01E-10,  avg # of iterations =  3.0

     negative rho (up, down):  2.217E+00 2.217E+00

     total cpu time spent up to now is    12483.2 secs

     total energy              =   -7970.88592176 Ry
     Harris-Foulkes estimate   =   -7970.88592192 Ry
     estimated scf accuracy    <       0.00000634 Ry

     total magnetization       =     0.01 Bohr mag/cell
     absolute magnetization    =     0.04 Bohr mag/cell

     iteration # 37     ecut=    45.00 Ry     beta=0.35
     Davidson diagonalization with overlap
     ethr =  5.01E-10,  avg # of iterations =  2.0

     negative rho (up, down):  2.217E+00 2.217E+00

     total cpu time spent up to now is    12710.0 secs

     total energy              =   -7970.88592253 Ry
     Harris-Foulkes estimate   =   -7970.88592232 Ry
     estimated scf accuracy    <       0.00000197 Ry

     total magnetization       =     0.01 Bohr mag/cell
     absolute magnetization    =     0.04 Bohr mag/cell

     iteration # 38     ecut=    45.00 Ry     beta=0.35
     Davidson diagonalization with overlap
     ethr =  1.71E-10,  avg # of iterations =  3.0

     negative rho (up, down):  2.217E+00 2.217E+00

     total cpu time spent up to now is    12972.5 secs

     total energy              =   -7970.88592267 Ry
     Harris-Foulkes estimate   =   -7970.88592282 Ry
     estimated scf accuracy    <       0.00000252 Ry

     total magnetization       =     0.01 Bohr mag/cell
     absolute magnetization    =     0.03 Bohr mag/cell

     iteration # 39     ecut=    45.00 Ry     beta=0.35
     Davidson diagonalization with overlap
     ethr =  1.71E-10,  avg # of iterations =  2.4

     negative rho (up, down):  2.217E+00 2.217E+00

     total cpu time spent up to now is    13232.5 secs

     total energy              =   -7970.88592327 Ry
     Harris-Foulkes estimate   =   -7970.88592298 Ry
     estimated scf accuracy    <       0.00000255 Ry

     total magnetization       =     0.01 Bohr mag/cell
     absolute magnetization    =     0.03 Bohr mag/cell

     iteration # 40     ecut=    45.00 Ry     beta=0.35
     Davidson diagonalization with overlap
     ethr =  1.71E-10,  avg # of iterations =  2.4

     negative rho (up, down):  2.217E+00 2.217E+00
 
     Magnetic moment per site:
     atom:    1    charge:    9.0792    magn:    0.0001    constr:    0.0000
     atom:    2    charge:    9.0974    magn:    0.0000    constr:    0.0000
     atom:    3    charge:    9.1009    magn:    0.0000    constr:    0.0000
     atom:    4    charge:    9.0937    magn:    0.0001    constr:    0.0000
     atom:    5    charge:    9.0718    magn:    0.0002    constr:    0.0000
     atom:    6    charge:    9.0853    magn:    0.0001    constr:    0.0000
     atom:    7    charge:    9.0940    magn:    0.0001    constr:    0.0000
     atom:    8    charge:    9.0695    magn:    0.0001    constr:    0.0000
     atom:    9    charge:    9.1222    magn:    0.0000    constr:    0.0000
     atom:   10    charge:    9.0590    magn:    0.0001    constr:    0.0000
     atom:   11    charge:    9.0821    magn:    0.0001    constr:    0.0000
     atom:   12    charge:    9.0632    magn:    0.0001    constr:    0.0000
     atom:   13    charge:    9.0594    magn:    0.0002    constr:    0.0000
     atom:   14    charge:    9.1196    magn:   -0.0000    constr:    0.0000
     atom:   15    charge:    9.0950    magn:    0.0001    constr:    0.0000
     atom:   16    charge:    9.0910    magn:    0.0000    constr:    0.0000
     atom:   17    charge:    9.0797    magn:    0.0000    constr:    0.0000
     atom:   18    charge:    9.0992    magn:    0.0001    constr:    0.0000
     atom:   19    charge:    9.0701    magn:    0.0000    constr:    0.0000
     atom:   20    charge:    9.0952    magn:    0.0000    constr:    0.0000
     atom:   21    charge:    9.0671    magn:    0.0001    constr:    0.0000
     atom:   22    charge:    9.0941    magn:    0.0001    constr:    0.0000
     atom:   23    charge:    9.1022    magn:    0.0001    constr:    0.0000
     atom:   24    charge:    9.0779    magn:    0.0001    constr:    0.0000
     atom:   25    charge:    9.1184    magn:    0.0000    constr:    0.0000
     atom:   26    charge:    9.0834    magn:    0.0001    constr:    0.0000
     atom:   27    charge:    9.0801    magn:    0.0002    constr:    0.0000
     atom:   28    charge:    9.0726    magn:    0.0001    constr:    0.0000
     atom:   29    charge:    9.0550    magn:    0.0002    constr:    0.0000
     atom:   30    charge:    9.0811    magn:    0.0001    constr:    0.0000
     atom:   31    charge:    9.0714    magn:    0.0001    constr:    0.0000
     atom:   32    charge:    9.0657    magn:    0.0001    constr:    0.0000
     atom:   33    charge:    9.0539    magn:    0.0001    constr:    0.0000
     atom:   34    charge:    9.1018    magn:    0.0000    constr:    0.0000
     atom:   35    charge:    9.0705    magn:    0.0001    constr:    0.0000
     atom:   36    charge:    9.0971    magn:    0.0001    constr:    0.0000
     atom:   37    charge:    9.0588    magn:    0.0001    constr:    0.0000
     atom:   38    charge:    9.0648    magn:    0.0001    constr:    0.0000
     atom:   39    charge:    9.0930    magn:    0.0001    constr:    0.0000
     atom:   40    charge:    9.0960    magn:   -0.0000    constr:    0.0000
     atom:   41    charge:    9.0649    magn:    0.0002    constr:    0.0000
     atom:   42    charge:    9.0707    magn:    0.0002    constr:    0.0000
     atom:   43    charge:    9.0755    magn:    0.0001    constr:    0.0000
     atom:   44    charge:    9.0684    magn:    0.0002    constr:    0.0000
     atom:   45    charge:    9.0706    magn:    0.0001    constr:    0.0000
     atom:   46    charge:    9.0804    magn:    0.0001    constr:    0.0000
     atom:   47    charge:    9.0682    magn:    0.0001    constr:    0.0000
     atom:   48    charge:    9.0961    magn:   -0.0000    constr:    0.0000
     atom:   49    charge:    9.0886    magn:    0.0001    constr:    0.0000
     atom:   50    charge:    9.0836    magn:    0.0001    constr:    0.0000
     atom:   51    charge:    9.0879    magn:    0.0001    constr:    0.0000
     atom:   52    charge:    9.1032    magn:    0.0001    constr:    0.0000
     atom:   53    charge:    9.0845    magn:    0.0001    constr:    0.0000
     atom:   54    charge:    9.0623    magn:    0.0001    constr:    0.0000
     atom:   55    charge:    9.0675    magn:    0.0001    constr:    0.0000
     atom:   56    charge:    9.0774    magn:    0.0001    constr:    0.0000
     atom:   57    charge:    9.1116    magn:    0.0001    constr:    0.0000
     atom:   58    charge:    9.0522    magn:    0.0002    constr:    0.0000
     atom:   59    charge:    9.0909    magn:    0.0001    constr:    0.0000
     atom:   60    charge:    9.0884    magn:    0.0001    constr:    0.0000
     atom:   61    charge:    9.0891    magn:    0.0001    constr:    0.0000
     atom:   62    charge:    9.0672    magn:    0.0002    constr:    0.0000
     atom:   63    charge:    9.0997    magn:   -0.0000    constr:    0.0000
     atom:   64    charge:    9.0754    magn:    0.0001    constr:    0.0000
     atom:   65    charge:    9.1008    magn:    0.0001    constr:    0.0000
     atom:   66    charge:    9.1007    magn:    0.0001    constr:    0.0000
     atom:   67    charge:    9.0864    magn:    0.0000    constr:    0.0000
     atom:   68    charge:    9.0897    magn:    0.0001    constr:    0.0000
     atom:   69    charge:    9.0697    magn:    0.0001    constr:    0.0000
     atom:   70    charge:    9.0951    magn:    0.0002    constr:    0.0000
     atom:   71    charge:    9.0793    magn:    0.0001    constr:    0.0000
     atom:   72    charge:    9.0761    magn:    0.0001    constr:    0.0000
     atom:   73    charge:    1.7371    magn:   -0.0001    constr:    0.0000
     atom:   74    charge:    1.7531    magn:   -0.0001    constr:    0.0000
     atom:   75    charge:    1.7656    magn:   -0.0001    constr:    0.0000
     atom:   76    charge:    1.7402    magn:   -0.0001    constr:    0.0000
     atom:   77    charge:    1.7703    magn:   -0.0001    constr:    0.0000
     atom:   78    charge:    1.7706    magn:   -0.0001    constr:    0.0000
     atom:   79    charge:    1.7651    magn:   -0.0001    constr:    0.0000
     atom:   80    charge:    1.7308    magn:   -0.0001    constr:    0.0000
     atom:   81    charge:    1.7495    magn:   -0.0001    constr:    0.0000
     atom:   82    charge:    1.7723    magn:   -0.0001    constr:    0.0000
     atom:   83    charge:    1.7824    magn:   -0.0001    constr:    0.0000
     atom:   84    charge:    1.7390    magn:   -0.0001    constr:    0.0000
     atom:   85    charge:    1.7518    magn:   -0.0001    constr:    0.0000
     atom:   86    charge:    1.7664    magn:   -0.0001    constr:    0.0000
     atom:   87    charge:    1.7622    magn:   -0.0001    constr:    0.0000
     atom:   88    charge:    1.7696    magn:   -0.0001    constr:    0.0000
     atom:   89    charge:    1.7698    magn:   -0.0001    constr:    0.0000
     atom:   90    charge:    1.7689    magn:   -0.0001    constr:    0.0000
     atom:   91    charge:    1.7462    magn:   -0.0001    constr:    0.0000
     atom:   92    charge:    1.7507    magn:   -0.0001    constr:    0.0000
     atom:   93    charge:    1.7667    magn:   -0.0001    constr:    0.0000
     atom:   94    charge:    1.7666    magn:   -0.0001    constr:    0.0000
     atom:   95    charge:    1.7473    magn:   -0.0001    constr:    0.0000
     atom:   96    charge:    1.7731    magn:   -0.0001    constr:    0.0000
     atom:   97    charge:    1.7765    magn:   -0.0001    constr:    0.0000
     atom:   98    charge:    1.7685    magn:   -0.0001    constr:    0.0000
     atom:   99    charge:    1.7334    magn:   -0.0001    constr:    0.0000
     atom:  100    charge:    1.7444    magn:   -0.0001    constr:    0.0000
     atom:  101    charge:    1.7434    magn:   -0.0001    constr:    0.0000
     atom:  102    charge:    1.7507    magn:   -0.0001    constr:    0.0000
     atom:  103    charge:    1.7630    magn:   -0.0001    constr:    0.0000
     atom:  104    charge:    1.7708    magn:   -0.0001    constr:    0.0000
     atom:  105    charge:    1.7710    magn:   -0.0001    constr:    0.0000
     atom:  106    charge:    1.7705    magn:   -0.0001    constr:    0.0000
     atom:  107    charge:    1.7623    magn:   -0.0001    constr:    0.0000
     atom:  108    charge:    1.7570    magn:   -0.0001    constr:    0.0000
     atom:  109    charge:    1.7604    magn:   -0.0001    constr:    0.0000
     atom:  110    charge:    1.7480    magn:   -0.0001    constr:    0.0000
     atom:  111    charge:    1.7449    magn:   -0.0001    constr:    0.0000
     atom:  112    charge:    1.7532    magn:   -0.0001    constr:    0.0000
     atom:  113    charge:    1.7663    magn:   -0.0001    constr:    0.0000
     atom:  114    charge:    1.7725    magn:   -0.0001    constr:    0.0000
     atom:  115    charge:    1.7275    magn:   -0.0001    constr:    0.0000
     atom:  116    charge:    1.7665    magn:   -0.0001    constr:    0.0000
     atom:  117    charge:    1.7899    magn:   -0.0001    constr:    0.0000
     atom:  118    charge:    1.7793    magn:   -0.0001    constr:    0.0000
     atom:  119    charge:    1.7352    magn:   -0.0001    constr:    0.0000
     atom:  120    charge:    1.7545    magn:   -0.0001    constr:    0.0000
     atom:  121    charge:    1.7864    magn:   -0.0001    constr:    0.0000
     atom:  122    charge:    1.7439    magn:   -0.0001    constr:    0.0000
     atom:  123    charge:    1.7419    magn:   -0.0001    constr:    0.0000
     atom:  124    charge:    1.7832    magn:   -0.0001    constr:    0.0000
     atom:  125    charge:    1.7611    magn:   -0.0001    constr:    0.0000
     atom:  126    charge:    1.7411    magn:   -0.0001    constr:    0.0000
     atom:  127    charge:    1.7587    magn:   -0.0001    constr:    0.0000
     atom:  128    charge:    1.7636    magn:   -0.0001    constr:    0.0000
     atom:  129    charge:    1.7480    magn:   -0.0001    constr:    0.0000
     atom:  130    charge:    1.7559    magn:   -0.0001    constr:    0.0000
     atom:  131    charge:    1.7716    magn:   -0.0001    constr:    0.0000
     atom:  132    charge:    1.7797    magn:   -0.0001    constr:    0.0000
     atom:  133    charge:    1.7624    magn:   -0.0001    constr:    0.0000
     atom:  134    charge:    1.7361    magn:   -0.0001    constr:    0.0000
     atom:  135    charge:    1.7780    magn:   -0.0001    constr:    0.0000
     atom:  136    charge:    1.7408    magn:   -0.0001    constr:    0.0000
     atom:  137    charge:    1.7778    magn:   -0.0001    constr:    0.0000
     atom:  138    charge:    1.7549    magn:   -0.0001    constr:    0.0000
     atom:  139    charge:    1.7466    magn:   -0.0001    constr:    0.0000
     atom:  140    charge:    1.7537    magn:   -0.0001    constr:    0.0000
     atom:  141    charge:    1.7504    magn:   -0.0001    constr:    0.0000
     atom:  142    charge:    1.7316    magn:   -0.0001    constr:    0.0000
     atom:  143    charge:    1.7349    magn:   -0.0001    constr:    0.0000
     atom:  144    charge:    1.7511    magn:   -0.0001    constr:    0.0000

     total cpu time spent up to now is    13486.6 secs

     End of self-consistent calculation

 ------ SPIN UP ------------


          k = 0.0000 0.0000 0.0000 ( 87771 PWs)   bands (ev):

   -35.2068 -35.2017 -35.1906 -35.1874 -35.1860 -35.1784 -35.1776 -35.1757
   -35.1753 -35.1732 -35.1707 -35.1649 -35.1623 -35.1612 -35.1556 -35.1530
   -35.1505 -35.1485 -35.1472 -35.1442 -35.1383 -35.1346 -35.1334 -35.1322
   -35.1309 -35.1301 -35.1287 -35.1274 -35.1247 -35.1237 -35.1220 -35.1179
   -35.1175 -35.1160 -35.1155 -35.1136 -35.1133 -35.1125 -35.1086 -35.1035
   -35.1028 -35.1015 -35.1003 -35.0976 -35.0961 -35.0957 -35.0948 -35.0936
   -35.0935 -35.0909 -35.0857 -35.0821 -35.0798 -35.0784 -35.0768 -35.0751
   -35.0720 -35.0688 -35.0680 -35.0670 -35.0662 -35.0604 -35.0584 -35.0551
   -35.0532 -35.0514 -35.0364 -35.0330 -35.0222 -35.0216 -35.0174 -35.0105
   -13.4457 -13.4432 -13.4409 -13.4395 -13.4374 -13.4334 -13.4252 -13.4231
   -13.4198 -13.4191 -13.4176 -13.4154 -13.4116 -13.4098 -13.4079 -13.4060
   -13.4044 -13.4018 -13.4003 -13.3976 -13.3970 -13.3951 -13.3943 -13.3915
   -13.3909 -13.3902 -13.3879 -13.3870 -13.3846 -13.3839 -13.3822 -13.3796
   -13.3793 -13.3776 -13.3763 -13.3753 -13.3735 -13.3722 -13.3700 -13.3681
   -13.3670 -13.3658 -13.3637 -13.3624 -13.3620 -13.3601 -13.3578 -13.3568
   -13.3545 -13.3527 -13.3485 -13.3470 -13.3431 -13.3403 -13.3387 -13.3349
   -13.3326 -13.3283 -13.3269 -13.3238 -13.3214 -13.3206 -13.3172 -13.3165
   -13.3137 -13.3123 -13.3101 -13.3067 -13.3025 -13.3012 -13.2978 -13.2947
   -13.2896 -13.2861 -13.2825 -13.2818 -13.2791 -13.2756 -13.2736 -13.2708
   -13.2682 -13.2661 -13.2642 -13.2618 -13.2591 -13.2581 -13.2562 -13.2532
   -13.2481 -13.2440 -13.2399 -13.2370 -13.2344 -13.2335 -13.2321 -13.2313
   -13.2293 -13.2262 -13.2249 -13.2243 -13.2236 -13.2228 -13.2221 -13.2166
   -13.2147 -13.2121 -13.2082 -13.2057 -13.2007 -13.1979 -13.1962 -13.1957
   -13.1949 -13.1926 -13.1921 -13.1886 -13.1880 -13.1869 -13.1859 -13.1841
   -13.1817 -13.1807 -13.1786 -13.1773 -13.1731 -13.1720 -13.1691 -13.1690
   -13.1670 -13.1657 -13.1644 -13.1619 -13.1616 -13.1586 -13.1580 -13.1559
   -13.1527 -13.1511 -13.1498 -13.1487 -13.1472 -13.1457 -13.1437 -13.1422
   -13.1398 -13.1385 -13.1372 -13.1358 -13.1341 -13.1325 -13.1294 -13.1289
   -13.1271 -13.1261 -13.1242 -13.1234 -13.1219 -13.1203 -13.1184 -13.1173
   -13.1162 -13.1159 -13.1140 -13.1115 -13.1088 -13.1086 -13.1053 -13.1017
   -13.1000 -13.0978 -13.0952 -13.0943 -13.0932 -13.0925 -13.0895 -13.0882
   -13.0866 -13.0838 -13.0824 -13.0803 -13.0779 -13.0777 -13.0747 -13.0729
   -13.0714 -13.0695 -13.0688 -13.0652 -13.0637 -13.0626 -13.0616 -13.0586
   -13.0567 -13.0563 -13.0525 -13.0487 -13.0479 -13.0458 -13.0443 -13.0398
   -13.0390 -13.0372 -13.0345 -13.0304 -13.0293 -13.0266 -13.0245 -13.0192
   -13.0173 -13.0123 -13.0086 -13.0044 -13.0037 -12.9942 -12.9827 -12.9659
     2.1967   2.5639   2.5914   2.8383   2.9356   2.9973   3.0283   3.0696
     3.1160   3.1676   3.1979   3.2393   3.2621   3.2859   3.3340   3.4749
     3.5075   3.5535   3.6029   3.6218   3.6505   3.6654   3.6851   3.7424
     3.7735   3.8414   3.8854   4.7164   4.7565   4.9114   4.9144   4.9186
     4.9353   4.9708   4.9743   4.9895   4.9947   5.0000   5.0130   5.0305
     5.0939   5.1419   5.1656   5.1751   5.2291   6.1951   6.2076   6.6265
     6.6412   6.6498   6.6700   6.6889   6.7032   6.7255   6.7713   6.7820
     6.7909   6.7948   6.8146   6.8216   6.8596   6.8686   6.8840   6.8906
     6.8982   6.9581   7.2045   7.2488   7.3871   7.4186   7.4391   7.4673
     8.1886   8.1918   8.2030   8.2154   8.6371   8.6685   8.6785   8.7221
     8.8078   8.8278   8.9009   8.9224   8.9492   8.9669   8.9811   8.9889
     8.9942   9.0117   9.0289   9.0296   9.0560   9.0620   9.0739   9.0831
     9.0924   9.1033   9.1074   9.1147   9.1197   9.1280   9.1363   9.1377
     9.1541   9.1709   9.1749   9.1986   9.6761   9.6918   9.7159   9.7398
     9.7421   9.7513   9.7520   9.7558   9.7675   9.7730   9.7809   9.7866
     9.8005   9.8084   9.8166   9.8229   9.8522   9.8582  10.1028  10.1487
    10.2189  10.2963  10.3132  10.3388  10.3481  10.3691  10.3756  10.4521
    10.4824  10.4862  10.4919  10.5065  10.5151  10.5184  10.5298  10.5375
    10.5411  10.5477  10.5544  10.5611  10.5674  10.5771  10.5799  10.5907
    10.5986  10.6026  10.6090  10.6188  10.6286  10.6408  10.6539  10.6619
    10.6759  10.6903  10.7129  10.7222  10.7241  10.7979  10.8197  10.8563
    10.8724  10.8756  10.8907  10.8979  10.9058  10.9161  10.9351  10.9410
    10.9637  10.9705  10.9775  10.9937  11.0006  11.0077  11.0124  11.0201
    11.0278  11.0312  11.0527  11.0729  11.0916  11.1055  11.1086  11.1274
    11.1598  11.1926  11.2417  11.2624  11.2995  11.3107  11.3158  11.3377
    11.3591  11.3701  11.3864  11.3978  11.4152  11.4402  11.4425  11.4645
    11.4926  11.5164  11.5725  11.5741  11.6211  11.6331  11.6493  11.6546
    11.8619  11.8954  12.0177  12.0293  12.0403  12.0429  12.0487  12.0526
    12.0604  12.0843  12.0887  12.0990  12.1047  12.1112  12.1170  12.1177
    12.1343  12.1473  12.1696  12.1803  12.1839  12.1949  12.2199  12.2401
    12.2708  12.2729  12.3009  12.3141  12.3318  12.3433  12.3511  12.3836
    12.4109  12.4226  12.4290  12.4380  12.5003  12.5216  12.5252  12.5817
    12.6083  12.6093  12.6191  12.6521  12.6599  12.6714  12.6864  12.6932
    12.7002  12.7098  12.7288  12.7354  12.7812  12.8352  12.8489  12.8830
    12.9178  12.9267  12.9598  12.9722  13.0067  13.1921  13.2107  13.2231
    13.2311  13.2473  13.2689  13.2886  13.2911  13.5305  13.5821  13.6131
    13.6633  13.7591  13.7938  13.8507  13.8630  13.8761  13.8905  13.9128
    13.9330  13.9746  14.0022  14.0065  14.0438  14.0615  14.0772  14.0872
    14.1018  14.1587  14.1771  14.2161  14.2299  14.2539  14.3243  14.3473
    14.3810  14.4214  14.4642  14.4849  14.5052  14.5177  14.5439  14.5592
    14.5624  14.5949  14.6207  14.6224  14.6356  14.6561  14.6685  14.6793
    14.7307  14.7583  14.8240  14.8290  14.8541  14.8673  14.8816  14.9042
    14.9203  14.9314  14.9499  14.9740  14.9778  15.0083  15.0229  15.0391
    15.0900  15.1273  15.1313  15.1837  15.2109  15.2184  15.2850  15.3095
    15.3437  15.3626  15.3712  15.3800  15.3968  15.4117  15.4167  15.4248
    15.4537  15.4850  15.5151  15.5186  15.5514  15.5810  15.5977  15.6160
    15.6408  15.6693  15.6797  15.6853  15.7070  15.7178  15.7260  15.7397
    15.7563  15.7698  15.7766  15.7844  15.7893  15.8006  15.8074  15.8131
    15.8229  15.8262  15.8356  15.8415  15.8513  15.8571  15.8686  15.8912
    15.8994  15.9149  15.9245  15.9324  15.9418  15.9484  15.9660  15.9688
    15.9878  16.0050  16.0256

     occupation numbers 
     1.0000   1.0000   1.0000   1.0000   1.0000   1.0000   1.0000   1.0000
     1.0000   1.0000   1.0000   1.0000   1.0000   1.0000   1.0000   1.0000
     1.0000   1.0000   1.0000   1.0000   1.0000   1.0000   1.0000   1.0000
     1.0000   1.0000   1.0000   1.0000   1.0000   1.0000   1.0000   1.0000
     1.0000   1.0000   1.0000   1.0000   1.0000   1.0000   1.0000   1.0000
     1.0000   1.0000   1.0000   1.0000   1.0000   1.0000   1.0000   1.0000
     1.0000   1.0000   1.0000   1.0000   1.0000   1.0000   1.0000   1.0000
     1.0000   1.0000   1.0000   1.0000   1.0000   1.0000   1.0000   1.0000
     1.0000   1.0000   1.0000   1.0000   1.0000   1.0000   1.0000   1.0000
     1.0000   1.0000   1.0000   1.0000   1.0000   1.0000   1.0000   1.0000
     1.0000   1.0000   1.0000   1.0000   1.0000   1.0000   1.0000   1.0000
     1.0000   1.0000   1.0000   1.0000   1.0000   1.0000   1.0000   1.0000
     1.0000   1.0000   1.0000   1.0000   1.0000   1.0000   1.0000   1.0000
     1.0000   1.0000   1.0000   1.0000   1.0000   1.0000   1.0000   1.0000
     1.0000   1.0000   1.0000   1.0000   1.0000   1.0000   1.0000   1.0000
     1.0000   1.0000   1.0000   1.0000   1.0000   1.0000   1.0000   1.0000
     1.0000   1.0000   1.0000   1.0000   1.0000   1.0000   1.0000   1.0000
     1.0000   1.0000   1.0000   1.0000   1.0000   1.0000   1.0000   1.0000
     1.0000   1.0000   1.0000   1.0000   1.0000   1.0000   1.0000   1.0000
     1.0000   1.0000   1.0000   1.0000   1.0000   1.0000   1.0000   1.0000
     1.0000   1.0000   1.0000   1.0000   1.0000   1.0000   1.0000   1.0000
     1.0000   1.0000   1.0000   1.0000   1.0000   1.0000   1.0000   1.0000
     1.0000   1.0000   1.0000   1.0000   1.0000   1.0000   1.0000   1.0000
[...]
     1.0000   1.0000   1.0000   1.0000   1.0000   1.0000   1.0000   1.0000
     1.0000   1.0000   1.0000   1.0000   1.0000   1.0000   1.0000   1.0000
     1.0000   1.0000   1.0000   1.0000   1.0000   1.0000   1.0000   1.0000
     1.0000   1.0000   1.0000   1.0000   1.0000   1.0000   1.0000   1.0000
     1.0000   1.0000   1.0000   1.0000   1.0000   1.0000   1.0000   1.0000
     1.0000   1.0000   1.0000   1.0000   1.0000   1.0000   1.0000   1.0000
     1.0000   1.0000   1.0000   1.0000   1.0000   1.0000   1.0000   1.0000
     1.0000   1.0000   1.0000   1.0000   1.0000   1.0000   1.0000   1.0000
     1.0000   1.0000   1.0000   1.0000   1.0000   1.0000   1.0000   1.0000
     1.0000   1.0000   1.0000   1.0000   1.0000   1.0000   1.0000   1.0000
     1.0000   1.0000   1.0000   1.0000   1.0000   1.0000   1.0000   1.0000
     1.0000   1.0000   1.0000   1.0000   1.0000   1.0000   1.0000   1.0000
     1.0000   1.0000   1.0000   1.0000   1.0000   1.0000   1.0000   1.0000
     1.0000   1.0000   1.0000   1.0000   1.0000   1.0000   1.0000   1.0000
     1.0000   1.0000   1.0000   1.0000   1.0000   1.0000   1.0000   1.0000
     1.0000   1.0000   1.0000   1.0000   1.0000   1.0000   1.0000   1.0000
     1.0000   1.0000   1.0000   1.0000   1.0000   1.0000   1.0000   1.0000
     1.0000   1.0000   1.0000   1.0000   1.0000   1.0000   1.0000   1.0000
     1.0000   1.0000   1.0000   1.0000   1.0000   1.0000   1.0000   1.0000
     1.0000   1.0000   1.0000   1.0000   1.0000   1.0000   1.0000   1.0000
     1.0000   1.0000   1.0000   1.0000   1.0000   1.0000   1.0000   1.0000
     1.0000   1.0000   1.0000   1.0000   1.0000   1.0000   1.0000   1.0000
     1.0000   1.0000   1.0000   1.0000   1.0000   1.0000   1.0000   1.0000
     1.0000   1.0000   1.0001   1.0002   1.0003   1.0009   1.0010   1.0020
     1.0038   1.0067   1.0078   1.0091   1.0112   1.0128   1.0162   1.0200
     1.0306   1.0428   1.0528   1.0646   1.0776   1.0823   1.0824   1.0649
     1.0457   1.0307   0.9359   0.9018   0.8228   0.7918   0.7364   0.6386
     0.4463   0.2523   0.2290   0.1866   0.1771   0.0680   0.0442   0.0336
     0.0269   0.0169   0.0107   0.0090   0.0050   0.0033   0.0020   0.0013
     0.0011   0.0007   0.0003   0.0002   0.0001   0.0000   0.0000   0.0000
     0.0000   0.0000   0.0000   0.0000   0.0000   0.0000   0.0000   0.0000
     0.0000   0.0000   0.0000   0.0000   0.0000   0.0000   0.0000   0.0000
     0.0000   0.0000   0.0000   0.0000   0.0000   0.0000   0.0000   0.0000
     0.0000   0.0000   0.0000   0.0000   0.0000   0.0000   0.0000   0.0000
     0.0000   0.0000   0.0000   0.0000   0.0000   0.0000   0.0000   0.0000
     0.0000   0.0000   0.0000   0.0000   0.0000   0.0000   0.0000   0.0000
     0.0000   0.0000   0.0000   0.0000   0.0000   0.0000   0.0000   0.0000
     0.0000   0.0000   0.0000   0.0000   0.0000   0.0000   0.0000   0.0000
     0.0000   0.0000   0.0000   0.0000   0.0000   0.0000   0.0000   0.0000
     0.0000   0.0000   0.0000   0.0000   0.0000   0.0000   0.0000   0.0000
     0.0000   0.0000   0.0000   0.0000   0.0000   0.0000   0.0000   0.0000
     0.0000   0.0000   0.0000

          k = 0.4000 0.8548-0.3774 ( 87790 PWs)   bands (ev):

   -35.2065 -35.2016 -35.1900 -35.1870 -35.1862 -35.1785 -35.1774 -35.1763
   -35.1754 -35.1729 -35.1701 -35.1650 -35.1622 -35.1604 -35.1554 -35.1530
   -35.1504 -35.1486 -35.1475 -35.1439 -35.1382 -35.1343 -35.1336 -35.1322
   -35.1311 -35.1296 -35.1288 -35.1272 -35.1243 -35.1237 -35.1224 -35.1181
   -35.1171 -35.1160 -35.1153 -35.1135 -35.1129 -35.1127 -35.1079 -35.1035
   -35.1024 -35.1018 -35.1004 -35.0972 -35.0964 -35.0955 -35.0945 -35.0938
   -35.0934 -35.0908 -35.0855 -35.0823 -35.0795 -35.0782 -35.0769 -35.0751
   -35.0720 -35.0689 -35.0678 -35.0669 -35.0665 -35.0603 -35.0584 -35.0550
   -35.0535 -35.0513 -35.0363 -35.0330 -35.0222 -35.0217 -35.0175 -35.0106
   -13.4507 -13.4453 -13.4423 -13.4387 -13.4365 -13.4328 -13.4307 -13.4275
   -13.4257 -13.4237 -13.4225 -13.4201 -13.4182 -13.4160 -13.4151 -13.4139
   -13.4102 -13.4086 -13.4062 -13.4054 -13.4026 -13.4013 -13.4000 -13.3964
   -13.3934 -13.3918 -13.3911 -13.3889 -13.3875 -13.3861 -13.3845 -13.3836
   -13.3820 -13.3809 -13.3799 -13.3771 -13.3766 -13.3741 -13.3723 -13.3709
   -13.3682 -13.3663 -13.3642 -13.3632 -13.3598 -13.3571 -13.3550 -13.3522
   -13.3491 -13.3475 -13.3455 -13.3421 -13.3406 -13.3375 -13.3338 -13.3227
   -13.3171 -13.3157 -13.3102 -13.3087 -13.3071 -13.3058 -13.3041 -13.3020
   -13.3003 -13.2979 -13.2958 -13.2936 -13.2933 -13.2908 -13.2883 -13.2863
   -13.2841 -13.2832 -13.2817 -13.2791 -13.2767 -13.2756 -13.2714 -13.2690
   -13.2665 -13.2623 -13.2584 -13.2567 -13.2543 -13.2535 -13.2510 -13.2493
   -13.2482 -13.2457 -13.2429 -13.2414 -13.2408 -13.2400 -13.2382 -13.2348
   -13.2331 -13.2309 -13.2282 -13.2265 -13.2257 -13.2206 -13.2199 -13.2172
   -13.2156 -13.2128 -13.2124 -13.2111 -13.2080 -13.2051 -13.2018 -13.1997
   -13.1987 -13.1960 -13.1950 -13.1931 -13.1902 -13.1889 -13.1862 -13.1859
   -13.1826 -13.1810 -13.1794 -13.1765 -13.1758 -13.1745 -13.1724 -13.1701
   -13.1685 -13.1668 -13.1654 -13.1639 -13.1621 -13.1585 -13.1581 -13.1559
   -13.1544 -13.1521 -13.1507 -13.1485 -13.1472 -13.1462 -13.1442 -13.1424
   -13.1410 -13.1384 -13.1371 -13.1355 -13.1345 -13.1324 -13.1304 -13.1289
   -13.1261 -13.1244 -13.1225 -13.1213 -13.1199 -13.1189 -13.1171 -13.1151
   -13.1134 -13.1127 -13.1104 -13.1084 -13.1071 -13.1055 -13.1041 -13.1031
   -13.1010 -13.1004 -13.0995 -13.0976 -13.0967 -13.0943 -13.0930 -13.0908
   -13.0885 -13.0874 -13.0853 -13.0840 -13.0825 -13.0809 -13.0785 -13.0748
   -13.0732 -13.0709 -13.0691 -13.0675 -13.0642 -13.0624 -13.0587 -13.0577
   -13.0551 -13.0539 -13.0523 -13.0505 -13.0485 -13.0470 -13.0434 -13.0425
   -13.0400 -13.0374 -13.0344 -13.0305 -13.0266 -13.0251 -13.0200 -13.0189
   -13.0162 -13.0134 -13.0111 -13.0062 -12.9950 -12.9931 -12.9823 -12.9662
     2.5257   2.5891   2.6510   2.6906   2.7287   2.8181   2.8586   2.8828
     2.9891   3.0262   3.0845   3.1357   3.4311   3.4405   3.4627   3.5542
     3.5831   3.6434   3.6915   3.7298   3.8022   3.8860   3.9629   4.0150
     4.0587   4.0727   4.1405   4.2147   4.2441   4.2702   4.2764   4.3594
     4.4073   4.4932   4.5132   4.5528   5.6422   5.6705   5.7117   5.7183
     5.7292   5.7594   5.8285   5.9113   5.9589   6.0777   6.0895   6.1057
     6.1185   6.1338   6.1835   6.2439   6.3286   6.3613   6.4322   6.5059
     6.5401   6.6041   6.6647   6.7402   6.7895   6.8292   6.9187   6.9476
     7.0065   7.0444   7.3838   7.4745   7.5089   7.6054   7.6531   7.8051
     8.1615   8.2061   8.2593   8.2763   8.3645   8.4388   8.4619   8.4760
     8.5238   8.6665   8.7070   8.7287   8.7475   8.9444   9.0424   9.0854
     9.1367   9.1903   9.2105   9.2524   9.2652   9.2740   9.2917   9.3021
     9.3200   9.3384   9.3537   9.3781   9.3978   9.4342   9.4557   9.4667
     9.5047   9.5875   9.6159   9.6953   9.7061   9.7328   9.7519   9.7633
     9.7685   9.7889   9.7952   9.8231   9.8380   9.8691   9.8889   9.8943
     9.9165   9.9360  10.0025  10.0129  10.0240  10.0366  10.0551  10.0714
    10.0902  10.0939  10.1153  10.1289  10.1374  10.1496  10.1632  10.1664
    10.1864  10.2019  10.2128  10.2292  10.2455  10.2560  10.2694  10.2858
    10.2935  10.3155  10.3255  10.3395  10.3531  10.3697  10.3751  10.3951
    10.4247  10.4310  10.4474  10.4590  10.5461  10.5793  10.5990  10.6191
    10.6308  10.6485  10.6741  10.6869  10.7354  10.7420  10.7593  10.7696
    10.7865  10.7943  10.8088  10.8189  10.8309  10.8389  10.8544  10.8752
    10.8985  10.9109  10.9261  10.9640  10.9845  10.9948  11.0166  11.0301
    11.0449  11.0736  11.1002  11.1179  11.1438  11.1602  11.2041  11.2354
    11.2530  11.2860  11.2965  11.3260  11.3374  11.3585  11.3701  11.3883
    11.4105  11.4437  11.4671  11.4860  11.5044  11.5087  11.5268  11.5416
    11.5494  11.5724  11.5924  11.6004  11.6057  11.6132  11.6461  11.6590
    11.6849  11.7094  11.7821  11.7906  11.8156  11.8743  11.9608  11.9770
    12.0010  12.0337  12.0713  12.0859  12.1034  12.1297  12.1465  12.1847
    12.2055  12.2119  12.2304  12.2360  12.2539  12.2700  12.2851  12.3000
    12.3241  12.3281  12.3499  12.3619  12.3649  12.3848  12.4068  12.4141
    12.4316  12.4446  12.4604  12.4729  12.4848  12.4912  12.5153  12.5315
    12.5475  12.5650  12.5828  12.6130  12.6298  12.7140  12.8309  12.8497
    12.8812  12.8882  12.9008  12.9138  12.9267  12.9422  12.9495  13.0120
    13.0437  13.0545  13.0776  13.0918  13.1226  13.1694  13.1916  13.2301
    13.3559  13.3965  13.4256  13.4424  13.4588  13.4752  13.5158  13.5449
    13.5721  13.6334  13.6694  13.7079  13.7437  13.7475  13.7678  13.7988
    13.8210  13.8504  13.8749  13.9129  13.9716  14.0069  14.0335  14.0521
    14.0789  14.1143  14.1260  14.1511  14.1837  14.2752  14.3034  14.3792
    14.4250  14.4448  14.4577  14.4811  14.4977  14.5315  14.5463  14.5740
    14.5922  14.6168  14.6242  14.6752  14.6897  14.7039  14.7423  14.7521
    14.7818  14.7908  14.8040  14.8341  14.8404  14.8620  14.8698  14.9024
    14.9132  14.9242  14.9677  14.9816  15.0514  15.0728  15.1008  15.1315
    15.1568  15.1754  15.2179  15.2431  15.2702  15.2995  15.3151  15.3488
    15.3769  15.3963  15.4295  15.4646  15.4737  15.4904  15.5139  15.5209
    15.5448  15.5532  15.5608  15.5914  15.6031  15.6123  15.6363  15.6426
    15.6632  15.6835  15.6912  15.7006  15.7252  15.7387  15.7609  15.7663
    15.7843  15.7977  15.8009  15.8291  15.8325  15.8505  15.8632  15.8699
    15.8935  15.9053  15.9109  15.9410  15.9494  15.9642  15.9750  15.9932
    16.0011  16.0345  16.0486  16.0821  16.0979  16.1127  16.1202  16.1340
    16.1530  16.1645  16.1709

     occupation numbers 
     1.0000   1.0000   1.0000   1.0000   1.0000   1.0000   1.0000   1.0000
     1.0000   1.0000   1.0000   1.0000   1.0000   1.0000   1.0000   1.0000
     1.0000   1.0000   1.0000   1.0000   1.0000   1.0000   1.0000   1.0000
     1.0000   1.0000   1.0000   1.0000   1.0000   1.0000   1.0000   1.0000
     1.0000   1.0000   1.0000   1.0000   1.0000   1.0000   1.0000   1.0000
     1.0000   1.0000   1.0000   1.0000   1.0000   1.0000   1.0000   1.0000
     1.0000   1.0000   1.0000   1.0000   1.0000   1.0000   1.0000   1.0000
     1.0000   1.0000   1.0000   1.0000   1.0000   1.0000   1.0000   1.0000
     1.0000   1.0000   1.0000   1.0000   1.0000   1.0000   1.0000   1.0000
     1.0000   1.0000   1.0000   1.0000   1.0000   1.0000   1.0000   1.0000
     1.0000   1.0000   1.0000   1.0000   1.0000   1.0000   1.0000   1.0000
     1.0000   1.0000   1.0000   1.0000   1.0000   1.0000   1.0000   1.0000
     1.0000   1.0000   1.0000   1.0000   1.0000   1.0000   1.0000   1.0000
     1.0000   1.0000   1.0000   1.0000   1.0000   1.0000   1.0000   1.0000
     1.0000   1.0000   1.0000   1.0000   1.0000   1.0000   1.0000   1.0000
     1.0000   1.0000   1.0000   1.0000   1.0000   1.0000   1.0000   1.0000
     1.0000   1.0000   1.0000   1.0000   1.0000   1.0000   1.0000   1.0000
     1.0000   1.0000   1.0000   1.0000   1.0000   1.0000   1.0000   1.0000
     1.0000   1.0000   1.0000   1.0000   1.0000   1.0000   1.0000   1.0000
     1.0000   1.0000   1.0000   1.0000   1.0000   1.0000   1.0000   1.0000
     1.0000   1.0000   1.0000   1.0000   1.0000   1.0000   1.0000   1.0000
     1.0000   1.0000   1.0000   1.0000   1.0000   1.0000   1.0000   1.0000
     1.0000   1.0000   1.0000   1.0000   1.0000   1.0000   1.0000   1.0000
     1.0000   1.0000   1.0000   1.0000   1.0000   1.0000   1.0000   1.0000
     1.0000   1.0000   1.0000   1.0000   1.0000   1.0000   1.0000   1.0000
     1.0000   1.0000   1.0000   1.0000   1.0000   1.0000   1.0000   1.0000
     1.0000   1.0000   1.0000   1.0000   1.0000   1.0000   1.0000   1.0000
     1.0000   1.0000   1.0000   1.0000   1.0000   1.0000   1.0000   1.0000
     1.0000   1.0000   1.0000   1.0000   1.0000   1.0000   1.0000   1.0000
     1.0000   1.0000   1.0000   1.0000   1.0000   1.0000   1.0000   1.0000
     1.0000   1.0000   1.0000   1.0000   1.0000   1.0000   1.0000   1.0000
     1.0000   1.0000   1.0000   1.0000   1.0000   1.0000   1.0000   1.0000
     1.0000   1.0000   1.0000   1.0000   1.0000   1.0000   1.0000   1.0000
     1.0000   1.0000   1.0000   1.0000   1.0000   1.0000   1.0000   1.0000
     1.0000   1.0000   1.0000   1.0000   1.0000   1.0000   1.0000   1.0000
     1.0000   1.0000   1.0000   1.0000   1.0000   1.0000   1.0000   1.0000
     1.0000   1.0000   1.0000   1.0000   1.0000   1.0000   1.0000   1.0000
     1.0000   1.0000   1.0000   1.0000   1.0000   1.0000   1.0000   1.0000
     1.0000   1.0000   1.0000   1.0000   1.0000   1.0000   1.0000   1.0000
     1.0000   1.0000   1.0000   1.0000   1.0000   1.0000   1.0000   1.0000
     1.0000   1.0000   1.0000   1.0000   1.0000   1.0000   1.0000   1.0000
     1.0000   1.0000   1.0000   1.0000   1.0000   1.0000   1.0000   1.0000
     1.0000   1.0000   1.0000   1.0000   1.0000   1.0000   1.0000   1.0000
     1.0000   1.0000   1.0000   1.0000   1.0000   1.0000   1.0000   1.0000
     1.0000   1.0000   1.0000   1.0000   1.0000   1.0000   1.0000   1.0000
     1.0000   1.0000   1.0000   1.0000   1.0000   1.0000   1.0000   1.0000
     1.0000   1.0000   1.0000   1.0000   1.0000   1.0000   1.0000   1.0000
     1.0000   1.0000   1.0000   1.0000   1.0000   1.0000   1.0000   1.0000
     1.0000   1.0000   1.0000   1.0000   1.0000   1.0000   1.0000   1.0000
     1.0000   1.0000   1.0000   1.0000   1.0000   1.0000   1.0000   1.0000
     1.0000   1.0000   1.0000   1.0000   1.0000   1.0000   1.0000   1.0000
     1.0000   1.0000   1.0000   1.0000   1.0000   1.0000   1.0000   1.0000
     1.0000   1.0000   1.0000   1.0000   1.0000   1.0000   1.0000   1.0000
     1.0000   1.0000   1.0000   1.0000   1.0000   1.0000   1.0000   1.0000
     1.0000   1.0000   1.0000   1.0000   1.0000   1.0000   1.0000   1.0000
     1.0000   1.0000   1.0000   1.0000   1.0000   1.0000   1.0000   1.0000
     1.0000   1.0000   1.0000   1.0000   1.0000   1.0000   1.0000   1.0000
     1.0000   1.0000   1.0000   1.0000   1.0000   1.0000   1.0000   1.0000
     1.0000   1.0000   1.0000   1.0000   1.0000   1.0000   1.0000   1.0000
     1.0000   1.0000   1.0000   1.0000   1.0000   1.0000   1.0000   1.0000
     1.0000   1.0000   1.0000   1.0000   1.0000   1.0000   1.0000   1.0000
     1.0000   1.0000   1.0000   1.0000   1.0000   1.0000   1.0000   1.0000
     1.0000   1.0000   1.0000   1.0000   1.0000   1.0000   1.0000   1.0000
     1.0000   1.0000   1.0000   1.0000   1.0000   1.0000   1.0000   1.0000
     1.0000   1.0000   1.0000   1.0000   1.0000   1.0000   1.0000   1.0000
     1.0000   1.0000   1.0000   1.0000   1.0000   1.0000   1.0000   1.0000
     1.0000   1.0000   1.0000   1.0000   1.0000   1.0000   1.0000   1.0000
     1.0000   1.0000   1.0000   1.0000   1.0000   1.0000   1.0000   1.0000
     1.0000   1.0000   1.0000   1.0001   1.0001   1.0005   1.0033   1.0044
     1.0067   1.0074   1.0087   1.0102   1.0120   1.0143   1.0156   1.0295
     1.0388   1.0423   1.0500   1.0549   1.0654   1.0785   1.0822   1.0820
     0.9841   0.9125   0.8497   0.8100   0.7688   0.7260   0.6151   0.5346
     0.4613   0.3107   0.2363   0.1703   0.1217   0.1172   0.0952   0.0681
     0.0527   0.0368   0.0269   0.0160   0.0066   0.0038   0.0024   0.0017
     0.0011   0.0005   0.0004   0.0003   0.0001   0.0000   0.0000   0.0000
     0.0000   0.0000   0.0000   0.0000   0.0000   0.0000   0.0000   0.0000
     0.0000   0.0000   0.0000   0.0000   0.0000   0.0000   0.0000   0.0000
     0.0000   0.0000   0.0000   0.0000   0.0000   0.0000   0.0000   0.0000
     0.0000   0.0000   0.0000   0.0000   0.0000   0.0000   0.0000   0.0000
     0.0000   0.0000   0.0000   0.0000   0.0000   0.0000   0.0000   0.0000
     0.0000   0.0000   0.0000   0.0000   0.0000   0.0000   0.0000   0.0000
     0.0000   0.0000   0.0000   0.0000   0.0000   0.0000   0.0000   0.0000
     0.0000   0.0000   0.0000   0.0000   0.0000   0.0000   0.0000   0.0000
     0.0000   0.0000   0.0000   0.0000   0.0000   0.0000   0.0000   0.0000
     0.0000   0.0000   0.0000   0.0000   0.0000   0.0000   0.0000   0.0000
     0.0000   0.0000   0.0000   0.0000   0.0000   0.0000   0.0000   0.0000
     0.0000   0.0000   0.0000

     the Fermi energy is    13.5955 ev

!    total energy              =   -7970.88592308 Ry
     Harris-Foulkes estimate   =   -7970.88592355 Ry
     estimated scf accuracy    <       0.00000111 Ry

     The total energy is the sum of the following terms:

     one-electron contribution =   -1196.00036112 Ry
     hartree contribution      =    1118.91382140 Ry
     xc contribution           =   -1734.72262941 Ry
     ewald contribution        =   -6159.09779021 Ry
     smearing contrib. (-TS)   =       0.02103625 Ry

     total magnetization       =     0.01 Bohr mag/cell
     absolute magnetization    =     0.03 Bohr mag/cell

     convergence has been achieved in  40 iterations

     Writing output data file aiida_.save
 
     init_run     :    144.79s CPU    150.89s WALL (       1 calls)
     electrons    :  12963.03s CPU  13328.13s WALL (       1 calls)

     Called by init_run:
     wfcinit      :    129.69s CPU    134.41s WALL (       1 calls)
     wfcinit:atom :      0.18s CPU      0.28s WALL (      10 calls)
     wfcinit:wfcr :    126.70s CPU    130.06s WALL (      10 calls)
     potinit      :      1.70s CPU      2.06s WALL (       1 calls)

     Called by electrons:
     c_bands      :  11818.14s CPU  12155.91s WALL (      40 calls)
     sum_band     :   1070.86s CPU   1093.80s WALL (      40 calls)
     v_of_rho     :     15.60s CPU     15.84s WALL (      41 calls)
     v_h          :      0.36s CPU      0.37s WALL (      41 calls)
     v_xc         :     15.24s CPU     15.47s WALL (      41 calls)
     newd         :     48.82s CPU     51.74s WALL (      41 calls)
     mix_rho      :      2.24s CPU      2.51s WALL (      40 calls)

     Called by c_bands:
     init_us_2    :     21.52s CPU     21.59s WALL (     810 calls)
     cegterg      :  10266.34s CPU  10566.16s WALL (     400 calls)

     Called by sum_band:
     sum_band:bec :     17.66s CPU     17.66s WALL (     400 calls)
     addusdens    :     67.51s CPU     72.62s WALL (      40 calls)

     Called by *egterg:
     h_psi        :   4284.47s CPU   4348.99s WALL (    1801 calls)
     s_psi        :    708.41s CPU    708.78s WALL (    1801 calls)
     g_psi        :      4.97s CPU      5.03s WALL (    1391 calls)
     cdiaghg      :   4191.54s CPU   4345.34s WALL (    1791 calls)
     cegterg:over :    452.62s CPU    456.03s WALL (    1391 calls)
     cegterg:upda :    349.76s CPU    353.67s WALL (    1391 calls)
     cegterg:last :    186.22s CPU    187.75s WALL (     400 calls)
     cdiaghg:chol :     84.89s CPU    107.15s WALL (    1791 calls)
     cdiaghg:inve :      9.36s CPU     11.13s WALL (    1791 calls)
     cdiaghg:para :    201.59s CPU    245.31s WALL (    3582 calls)

     Called by h_psi:
     h_psi:pot    :   4275.16s CPU   4339.65s WALL (    1801 calls)
     h_psi:calbec :    670.75s CPU    671.92s WALL (    1801 calls)
     vloc_psi     :   2912.18s CPU   2965.66s WALL (    1801 calls)
     add_vuspsi   :    692.10s CPU    701.80s WALL (    1801 calls)

     General routines
     calbec       :    954.53s CPU    956.13s WALL (    2201 calls)
     fft          :      8.71s CPU      9.10s WALL (    1261 calls)
     ffts         :      0.54s CPU      0.57s WALL (     162 calls)
     fftw         :   3033.54s CPU   3095.06s WALL ( 1532534 calls)
     interpolate  :      1.80s CPU      1.85s WALL (     162 calls)
     davcio       :      0.00s CPU      1.04s WALL (      10 calls)
 
     Parallel routines
     fft_scatter  :   1089.39s CPU   1124.53s WALL ( 1533957 calls)
 
     PWSCF        :     3h38m CPU        3h45m WALL

 
   This run was terminated on:  19:49:22   2May2017            

=------------------------------------------------------------------------------=
   JOB DONE.
=------------------------------------------------------------------------------=
