
     Program PWSCF v.6.1 (svn rev. 13369) starts on 21Apr2017 at  9:28:17 

     This program is part of the open-source Quantum ESPRESSO suite
     for quantum simulation of materials; please cite
         "P. Giannozzi et al., J. Phys.:Condens. Matter 21 395502 (2009);
          URL http://www.quantum-espresso.org", 
     in publications or presentations arising from this work. More details at
     http://www.quantum-espresso.org/quote

     Parallel version (MPI), running on  1024 processors
     K-points division:     npool     =      64
     R & G space division:  proc/nbgrp/npool/nimage =      16
     Reading input from pw.in

     Current dimensions of program PWSCF are:
     Max number of different atomic species (ntypx) = 10
     Max number of k-points (npk) =  40000
     Max angular momentum in pseudopotentials (lmaxx) =  3

     Subspace diagonalization in iterative solution of the eigenvalue problem:
     one sub-group per band group will be used
     custom distributed-memory algorithm (size of sub-group:  4*  4 procs)

 
     Parallelization info
     --------------------
     sticks:   dense  smooth     PW     G-vecs:    dense   smooth      PW
     Min         546     272     78                20694     7313    1112
     Max         547     273     79                20695     7314    1113
     Sum        8739    4367   1249               331113   117017   17797
 


     bravais-lattice index     =            0
     lattice parameter (alat)  =      21.3697  a.u.
     unit-cell volume          =    2870.2376 (a.u.)^3
     number of atoms/cell      =           24
     number of atomic types    =            2
     number of electrons       =       192.00
     number of Kohn-Sham states=          115
     kinetic-energy cutoff     =      45.0000  Ry
     charge density cutoff     =     360.0000  Ry
     convergence threshold     =      2.4E-07
     mixing beta               =       0.3500
     number of iterations used =            8  plain     mixing
     Exchange-correlation      = SLA  PW   PBE  PBE ( 1  4  3  4 0 0)

     celldm(1)=  21.369685  celldm(2)=   0.000000  celldm(3)=   0.000000
     celldm(4)=   0.000000  celldm(5)=   0.000000  celldm(6)=   0.000000

     crystal axes: (cart. coord. in units of alat)
               a(1) = (   1.000000   0.000000   0.000000 )  
               a(2) = (   0.000000   0.624362   0.236591 )  
               a(3) = (   0.000000   0.000000   0.471071 )  

     reciprocal axes: (cart. coord. in units 2 pi/alat)
               b(1) = (  1.000000  0.000000  0.000000 )  
               b(2) = (  0.000000  1.601634  0.000000 )  
               b(3) = (  0.000000 -0.804405  2.122821 )  


     PseudoPot. # 1 for Si read from file:
     ./pseudo/Si.pbe-n-rrkjus_psl.1.0.0.UPF
     MD5 check sum: d928fff27e2cf23ab01de9cd48acd62a
     Pseudo is Ultrasoft + core correction, Zval =  4.0
     Generated using "atomic" code by A. Dal Corso  v.5.1
     Using radial grid of 1141 points,  6 beta functions with: 
                l(1) =   0
                l(2) =   0
                l(3) =   1
                l(4) =   1
                l(5) =   2
                l(6) =   2
     Q(r) pseudized with 0 coefficients 


     PseudoPot. # 2 for Zr read from file:
     ./pseudo/Zr_pbe_v1.uspp.F.UPF
     MD5 check sum: 5db81b1e868ab7776c4564c113de050b
     Pseudo is Ultrasoft + core correction, Zval = 12.0
     Generated by new atomic code, or converted to UPF format
     Using radial grid of  887 points,  6 beta functions with: 
                l(1) =   0
                l(2) =   0
                l(3) =   1
                l(4) =   1
                l(5) =   2
                l(6) =   2
     Q(r) pseudized with  6 coefficients,  rinner =    1.200   1.200   1.200
                                                       1.200   1.200

     atomic species   valence    mass     pseudopotential
        Si             4.00    28.08550     Si( 1.00)
        Zr            12.00    91.22400     Zr( 1.00)

     Starting magnetic structure 
     atomic species   magnetization
        Si           0.000
        Zr           0.417

     No symmetry found


                                    s                        frac. trans.

      isym =  1     identity                                     

 cryst.   s( 1) = (     1          0          0      )
                  (     0          1          0      )
                  (     0          0          1      )

 cart.    s( 1) = (  1.0000000  0.0000000  0.0000000 )
                  (  0.0000000  1.0000000  0.0000000 )
                  (  0.0000000 -0.0000000  1.0000000 )


   Cartesian axes

     site n.     atom                  positions (alat units)
         1           Zr  tau(   1) = (   0.0849136   0.2617535   0.2332711  )
         2           Zr  tau(   2) = (   0.0826137   0.5816343   0.3496644  )
         3           Zr  tau(   3) = (   0.4177076   0.2652574   0.2447223  )
         4           Zr  tau(   4) = (   0.4195508   0.5854738   0.3567491  )
         5           Zr  tau(   5) = (   0.7490816   0.2714019   0.2432517  )
         6           Zr  tau(   6) = (   0.7531469   0.5845841   0.3592668  )
         7           Zr  tau(   7) = (   0.2456702   0.0436282   0.3461261  )
         8           Zr  tau(   8) = (   0.2541896   0.3521749   0.4677362  )
         9           Zr  tau(   9) = (   0.5872608   0.0433430   0.3459169  )
        10           Zr  tau(  10) = (   0.5763432   0.3565062   0.4693231  )
        11           Zr  tau(  11) = (   0.9223878   0.0494515   0.3509161  )
        12           Zr  tau(  12) = (   0.9187433   0.3618918   0.4749010  )
        13           Si  tau(  13) = (   0.2475696   0.1272710   0.1187276  )
        14           Si  tau(  14) = (   0.2501174   0.4481364   0.2364789  )
        15           Si  tau(  15) = (   0.5845975   0.1311824   0.1168144  )
        16           Si  tau(  16) = (   0.5880199   0.4482199   0.2391529  )
        17           Si  tau(  17) = (   0.9108569   0.1304446   0.1198963  )
        18           Si  tau(  18) = (   0.9144195   0.4371156   0.2413626  )
        19           Si  tau(  19) = (   0.0764592   0.1822462   0.4655981  )
        20           Si  tau(  20) = (   0.0886257   0.4908126   0.5881735  )
        21           Si  tau(  21) = (   0.4197308   0.1822714   0.4594581  )
        22           Si  tau(  22) = (   0.4125918   0.4976556   0.5869724  )
        23           Si  tau(  23) = (   0.7479428   0.1873324   0.4659956  )
        24           Si  tau(  24) = (   0.7441195   0.4928691   0.5799690  )

   Crystallographic axes

     site n.     atom                  positions (cryst. coord.)
         1           Zr  tau(   1) = (  0.0849136  0.4192332  0.2846370  )
         2           Zr  tau(   2) = (  0.0826137  0.9315652  0.2744055  )
         3           Zr  tau(   3) = (  0.4177076  0.4248452  0.3061272  )
         4           Zr  tau(   4) = (  0.4195508  0.9377145  0.2863564  )
         5           Zr  tau(   5) = (  0.7490816  0.4346864  0.2980629  )
         6           Zr  tau(   6) = (  0.7531469  0.9362897  0.2924167  )
         7           Zr  tau(   7) = (  0.2456702  0.0698764  0.6996688  )
         8           Zr  tau(   8) = (  0.2541896  0.5640551  0.7096290  )
         9           Zr  tau(   9) = (  0.5872608  0.0694196  0.6994543  )
        10           Zr  tau(  10) = (  0.5763432  0.5709923  0.7095134  )
        11           Zr  tau(  11) = (  0.9223878  0.0792032  0.7051529  )
        12           Zr  tau(  12) = (  0.9187433  0.5796181  0.7170221  )
        13           Si  tau(  13) = (  0.2475696  0.2038415  0.1496600  )
        14           Si  tau(  14) = (  0.2501174  0.7177503  0.1415194  )
        15           Si  tau(  15) = (  0.5845975  0.2101062  0.1424524  )
        16           Si  tau(  16) = (  0.5880199  0.7178842  0.1471284  )
        17           Si  tau(  17) = (  0.9108569  0.2089244  0.1495881  )
        18           Si  tau(  18) = (  0.9144195  0.7000990  0.1607518  )
        19           Si  tau(  19) = (  0.0764592  0.2918917  0.8417816  )
        20           Si  tau(  20) = (  0.0886257  0.7861020  0.8537748  )
        21           Si  tau(  21) = (  0.4197308  0.2919321  0.8287272  )
        22           Si  tau(  22) = (  0.4125918  0.7970621  0.8457206  )
        23           Si  tau(  23) = (  0.7479428  0.3000379  0.8385339  )
        24           Si  tau(  24) = (  0.7441195  0.7893958  0.8347040  )

     number of k points=   352  Marzari-Vanderbilt smearing, width (Ry)=  0.0200
                       cart. coord. in units 2pi/alat
        k(    1) = (   0.0000000   0.0000000   0.0000000), wk =   0.0014245
        k(    2) = (   0.0000000  -0.0618773   0.1632939), wk =   0.0028490
        k(    3) = (   0.0000000  -0.1237546   0.3265878), wk =   0.0028490
        k(    4) = (   0.0000000  -0.1856318   0.4898817), wk =   0.0028490
        k(    5) = (   0.0000000  -0.2475091   0.6531756), wk =   0.0028490
        k(    6) = (   0.0000000  -0.3093864   0.8164694), wk =   0.0028490
        k(    7) = (   0.0000000  -0.3712637   0.9797633), wk =   0.0028490
        k(    8) = (   0.0000000   0.1779593   0.0000000), wk =   0.0028490
        k(    9) = (   0.0000000   0.1160820   0.1632939), wk =   0.0028490
        k(   10) = (   0.0000000   0.0542047   0.3265878), wk =   0.0028490
        k(   11) = (   0.0000000  -0.0076725   0.4898817), wk =   0.0028490
        k(   12) = (   0.0000000  -0.0695498   0.6531756), wk =   0.0028490
        k(   13) = (   0.0000000  -0.1314271   0.8164694), wk =   0.0028490
        k(   14) = (   0.0000000  -0.1933044   0.9797633), wk =   0.0028490
        k(   15) = (   0.0000000   0.5492230  -0.9797633), wk =   0.0028490
        k(   16) = (   0.0000000   0.4873457  -0.8164694), wk =   0.0028490
        k(   17) = (   0.0000000   0.4254684  -0.6531756), wk =   0.0028490
        k(   18) = (   0.0000000   0.3635911  -0.4898817), wk =   0.0028490
        k(   19) = (   0.0000000   0.3017139  -0.3265878), wk =   0.0028490
        k(   20) = (   0.0000000   0.2398366  -0.1632939), wk =   0.0028490
        k(   21) = (   0.0000000   0.3559186   0.0000000), wk =   0.0028490
        k(   22) = (   0.0000000   0.2940413   0.1632939), wk =   0.0028490
        k(   23) = (   0.0000000   0.2321641   0.3265878), wk =   0.0028490
        k(   24) = (   0.0000000   0.1702868   0.4898817), wk =   0.0028490
        k(   25) = (   0.0000000   0.1084095   0.6531756), wk =   0.0028490
        k(   26) = (   0.0000000   0.0465322   0.8164694), wk =   0.0028490
        k(   27) = (   0.0000000  -0.0153451   0.9797633), wk =   0.0028490
        k(   28) = (   0.0000000   0.7271823  -0.9797633), wk =   0.0028490
        k(   29) = (   0.0000000   0.6653050  -0.8164694), wk =   0.0028490
        k(   30) = (   0.0000000   0.6034277  -0.6531756), wk =   0.0028490
        k(   31) = (   0.0000000   0.5415504  -0.4898817), wk =   0.0028490
        k(   32) = (   0.0000000   0.4796732  -0.3265878), wk =   0.0028490
        k(   33) = (   0.0000000   0.4177959  -0.1632939), wk =   0.0028490
        k(   34) = (   0.0000000   0.5338779   0.0000000), wk =   0.0028490
        k(   35) = (   0.0000000   0.4720006   0.1632939), wk =   0.0028490
        k(   36) = (   0.0000000   0.4101234   0.3265878), wk =   0.0028490
        k(   37) = (   0.0000000   0.3482461   0.4898817), wk =   0.0028490
        k(   38) = (   0.0000000   0.2863688   0.6531756), wk =   0.0028490
        k(   39) = (   0.0000000   0.2244915   0.8164694), wk =   0.0028490
        k(   40) = (   0.0000000   0.1626142   0.9797633), wk =   0.0028490
        k(   41) = (   0.0000000   0.9051416  -0.9797633), wk =   0.0028490
        k(   42) = (   0.0000000   0.8432643  -0.8164694), wk =   0.0028490
        k(   43) = (   0.0000000   0.7813870  -0.6531756), wk =   0.0028490
        k(   44) = (   0.0000000   0.7195097  -0.4898817), wk =   0.0028490
        k(   45) = (   0.0000000   0.6576325  -0.3265878), wk =   0.0028490
        k(   46) = (   0.0000000   0.5957552  -0.1632939), wk =   0.0028490
        k(   47) = (   0.0000000   0.7118372   0.0000000), wk =   0.0028490
        k(   48) = (   0.0000000   0.6499599   0.1632939), wk =   0.0028490
        k(   49) = (   0.0000000   0.5880827   0.3265878), wk =   0.0028490
        k(   50) = (   0.0000000   0.5262054   0.4898817), wk =   0.0028490
        k(   51) = (   0.0000000   0.4643281   0.6531756), wk =   0.0028490
        k(   52) = (   0.0000000   0.4024508   0.8164694), wk =   0.0028490
        k(   53) = (   0.0000000   0.3405735   0.9797633), wk =   0.0028490
        k(   54) = (   0.0000000   1.0831009  -0.9797633), wk =   0.0028490
        k(   55) = (   0.0000000   1.0212236  -0.8164694), wk =   0.0028490
        k(   56) = (   0.0000000   0.9593463  -0.6531756), wk =   0.0028490
        k(   57) = (   0.0000000   0.8974690  -0.4898817), wk =   0.0028490
        k(   58) = (   0.0000000   0.8355918  -0.3265878), wk =   0.0028490
        k(   59) = (   0.0000000   0.7737145  -0.1632939), wk =   0.0028490
        k(   60) = (   0.1666667   0.0000000   0.0000000), wk =   0.0028490
        k(   61) = (   0.1666667  -0.0618773   0.1632939), wk =   0.0028490
        k(   62) = (   0.1666667  -0.1237546   0.3265878), wk =   0.0028490
        k(   63) = (   0.1666667  -0.1856318   0.4898817), wk =   0.0028490
        k(   64) = (   0.1666667  -0.2475091   0.6531756), wk =   0.0028490
        k(   65) = (   0.1666667  -0.3093864   0.8164694), wk =   0.0028490
        k(   66) = (   0.1666667  -0.3712637   0.9797633), wk =   0.0028490
        k(   67) = (   0.1666667   0.1779593   0.0000000), wk =   0.0028490
        k(   68) = (   0.1666667   0.1160820   0.1632939), wk =   0.0028490
        k(   69) = (   0.1666667   0.0542047   0.3265878), wk =   0.0028490
        k(   70) = (   0.1666667  -0.0076725   0.4898817), wk =   0.0028490
        k(   71) = (   0.1666667  -0.0695498   0.6531756), wk =   0.0028490
        k(   72) = (   0.1666667  -0.1314271   0.8164694), wk =   0.0028490
        k(   73) = (   0.1666667  -0.1933044   0.9797633), wk =   0.0028490
        k(   74) = (   0.1666667   0.5492230  -0.9797633), wk =   0.0028490
        k(   75) = (   0.1666667   0.4873457  -0.8164694), wk =   0.0028490
        k(   76) = (   0.1666667   0.4254684  -0.6531756), wk =   0.0028490
        k(   77) = (   0.1666667   0.3635911  -0.4898817), wk =   0.0028490
        k(   78) = (   0.1666667   0.3017139  -0.3265878), wk =   0.0028490
        k(   79) = (   0.1666667   0.2398366  -0.1632939), wk =   0.0028490
        k(   80) = (   0.1666667   0.3559186   0.0000000), wk =   0.0028490
        k(   81) = (   0.1666667   0.2940413   0.1632939), wk =   0.0028490
        k(   82) = (   0.1666667   0.2321641   0.3265878), wk =   0.0028490
        k(   83) = (   0.1666667   0.1702868   0.4898817), wk =   0.0028490
        k(   84) = (   0.1666667   0.1084095   0.6531756), wk =   0.0028490
        k(   85) = (   0.1666667   0.0465322   0.8164694), wk =   0.0028490
        k(   86) = (   0.1666667  -0.0153451   0.9797633), wk =   0.0028490
        k(   87) = (   0.1666667   0.7271823  -0.9797633), wk =   0.0028490
        k(   88) = (   0.1666667   0.6653050  -0.8164694), wk =   0.0028490
        k(   89) = (   0.1666667   0.6034277  -0.6531756), wk =   0.0028490
        k(   90) = (   0.1666667   0.5415504  -0.4898817), wk =   0.0028490
        k(   91) = (   0.1666667   0.4796732  -0.3265878), wk =   0.0028490
        k(   92) = (   0.1666667   0.4177959  -0.1632939), wk =   0.0028490
        k(   93) = (   0.1666667   0.5338779   0.0000000), wk =   0.0028490
        k(   94) = (   0.1666667   0.4720006   0.1632939), wk =   0.0028490
        k(   95) = (   0.1666667   0.4101234   0.3265878), wk =   0.0028490
        k(   96) = (   0.1666667   0.3482461   0.4898817), wk =   0.0028490
        k(   97) = (   0.1666667   0.2863688   0.6531756), wk =   0.0028490
        k(   98) = (   0.1666667   0.2244915   0.8164694), wk =   0.0028490
        k(   99) = (   0.1666667   0.1626142   0.9797633), wk =   0.0028490
        k(  100) = (   0.1666667   0.9051416  -0.9797633), wk =   0.0028490
        k(  101) = (   0.1666667   0.8432643  -0.8164694), wk =   0.0028490
        k(  102) = (   0.1666667   0.7813870  -0.6531756), wk =   0.0028490
        k(  103) = (   0.1666667   0.7195097  -0.4898817), wk =   0.0028490
        k(  104) = (   0.1666667   0.6576325  -0.3265878), wk =   0.0028490
        k(  105) = (   0.1666667   0.5957552  -0.1632939), wk =   0.0028490
        k(  106) = (   0.1666667   0.7118372   0.0000000), wk =   0.0028490
        k(  107) = (   0.1666667   0.6499599   0.1632939), wk =   0.0028490
        k(  108) = (   0.1666667   0.5880827   0.3265878), wk =   0.0028490
        k(  109) = (   0.1666667   0.5262054   0.4898817), wk =   0.0028490
        k(  110) = (   0.1666667   0.4643281   0.6531756), wk =   0.0028490
        k(  111) = (   0.1666667   0.4024508   0.8164694), wk =   0.0028490
        k(  112) = (   0.1666667   0.3405735   0.9797633), wk =   0.0028490
        k(  113) = (   0.1666667   1.0831009  -0.9797633), wk =   0.0028490
        k(  114) = (   0.1666667   1.0212236  -0.8164694), wk =   0.0028490
        k(  115) = (   0.1666667   0.9593463  -0.6531756), wk =   0.0028490
        k(  116) = (   0.1666667   0.8974690  -0.4898817), wk =   0.0028490
        k(  117) = (   0.1666667   0.8355918  -0.3265878), wk =   0.0028490
        k(  118) = (   0.1666667   0.7737145  -0.1632939), wk =   0.0028490
        k(  119) = (   0.3333333   0.0000000   0.0000000), wk =   0.0028490
        k(  120) = (   0.3333333  -0.0618773   0.1632939), wk =   0.0028490
        k(  121) = (   0.3333333  -0.1237546   0.3265878), wk =   0.0028490
        k(  122) = (   0.3333333  -0.1856318   0.4898817), wk =   0.0028490
        k(  123) = (   0.3333333  -0.2475091   0.6531756), wk =   0.0028490
        k(  124) = (   0.3333333  -0.3093864   0.8164694), wk =   0.0028490
        k(  125) = (   0.3333333  -0.3712637   0.9797633), wk =   0.0028490
        k(  126) = (   0.3333333   0.1779593   0.0000000), wk =   0.0028490
        k(  127) = (   0.3333333   0.1160820   0.1632939), wk =   0.0028490
        k(  128) = (   0.3333333   0.0542047   0.3265878), wk =   0.0028490
        k(  129) = (   0.3333333  -0.0076725   0.4898817), wk =   0.0028490
        k(  130) = (   0.3333333  -0.0695498   0.6531756), wk =   0.0028490
        k(  131) = (   0.3333333  -0.1314271   0.8164694), wk =   0.0028490
        k(  132) = (   0.3333333  -0.1933044   0.9797633), wk =   0.0028490
        k(  133) = (   0.3333333   0.5492230  -0.9797633), wk =   0.0028490
        k(  134) = (   0.3333333   0.4873457  -0.8164694), wk =   0.0028490
        k(  135) = (   0.3333333   0.4254684  -0.6531756), wk =   0.0028490
        k(  136) = (   0.3333333   0.3635911  -0.4898817), wk =   0.0028490
        k(  137) = (   0.3333333   0.3017139  -0.3265878), wk =   0.0028490
        k(  138) = (   0.3333333   0.2398366  -0.1632939), wk =   0.0028490
        k(  139) = (   0.3333333   0.3559186   0.0000000), wk =   0.0028490
        k(  140) = (   0.3333333   0.2940413   0.1632939), wk =   0.0028490
        k(  141) = (   0.3333333   0.2321641   0.3265878), wk =   0.0028490
        k(  142) = (   0.3333333   0.1702868   0.4898817), wk =   0.0028490
        k(  143) = (   0.3333333   0.1084095   0.6531756), wk =   0.0028490
        k(  144) = (   0.3333333   0.0465322   0.8164694), wk =   0.0028490
        k(  145) = (   0.3333333  -0.0153451   0.9797633), wk =   0.0028490
        k(  146) = (   0.3333333   0.7271823  -0.9797633), wk =   0.0028490
        k(  147) = (   0.3333333   0.6653050  -0.8164694), wk =   0.0028490
        k(  148) = (   0.3333333   0.6034277  -0.6531756), wk =   0.0028490
        k(  149) = (   0.3333333   0.5415504  -0.4898817), wk =   0.0028490
        k(  150) = (   0.3333333   0.4796732  -0.3265878), wk =   0.0028490
        k(  151) = (   0.3333333   0.4177959  -0.1632939), wk =   0.0028490
        k(  152) = (   0.3333333   0.5338779   0.0000000), wk =   0.0028490
        k(  153) = (   0.3333333   0.4720006   0.1632939), wk =   0.0028490
        k(  154) = (   0.3333333   0.4101234   0.3265878), wk =   0.0028490
        k(  155) = (   0.3333333   0.3482461   0.4898817), wk =   0.0028490
        k(  156) = (   0.3333333   0.2863688   0.6531756), wk =   0.0028490
        k(  157) = (   0.3333333   0.2244915   0.8164694), wk =   0.0028490
        k(  158) = (   0.3333333   0.1626142   0.9797633), wk =   0.0028490
        k(  159) = (   0.3333333   0.9051416  -0.9797633), wk =   0.0028490
        k(  160) = (   0.3333333   0.8432643  -0.8164694), wk =   0.0028490
        k(  161) = (   0.3333333   0.7813870  -0.6531756), wk =   0.0028490
        k(  162) = (   0.3333333   0.7195097  -0.4898817), wk =   0.0028490
        k(  163) = (   0.3333333   0.6576325  -0.3265878), wk =   0.0028490
        k(  164) = (   0.3333333   0.5957552  -0.1632939), wk =   0.0028490
        k(  165) = (   0.3333333   0.7118372   0.0000000), wk =   0.0028490
        k(  166) = (   0.3333333   0.6499599   0.1632939), wk =   0.0028490
        k(  167) = (   0.3333333   0.5880827   0.3265878), wk =   0.0028490
        k(  168) = (   0.3333333   0.5262054   0.4898817), wk =   0.0028490
        k(  169) = (   0.3333333   0.4643281   0.6531756), wk =   0.0028490
        k(  170) = (   0.3333333   0.4024508   0.8164694), wk =   0.0028490
        k(  171) = (   0.3333333   0.3405735   0.9797633), wk =   0.0028490
        k(  172) = (   0.3333333   1.0831009  -0.9797633), wk =   0.0028490
        k(  173) = (   0.3333333   1.0212236  -0.8164694), wk =   0.0028490
        k(  174) = (   0.3333333   0.9593463  -0.6531756), wk =   0.0028490
        k(  175) = (   0.3333333   0.8974690  -0.4898817), wk =   0.0028490
        k(  176) = (   0.3333333   0.8355918  -0.3265878), wk =   0.0028490
        k(  177) = (   0.3333333   0.7737145  -0.1632939), wk =   0.0028490
        k(  178) = (  -0.5000000   0.0000000   0.0000000), wk =   0.0014245
        k(  179) = (  -0.5000000  -0.0618773   0.1632939), wk =   0.0028490
        k(  180) = (  -0.5000000  -0.1237546   0.3265878), wk =   0.0028490
        k(  181) = (  -0.5000000  -0.1856318   0.4898817), wk =   0.0028490
        k(  182) = (  -0.5000000  -0.2475091   0.6531756), wk =   0.0028490
        k(  183) = (  -0.5000000  -0.3093864   0.8164694), wk =   0.0028490
        k(  184) = (  -0.5000000  -0.3712637   0.9797633), wk =   0.0028490
        k(  185) = (  -0.5000000   0.1779593   0.0000000), wk =   0.0028490
        k(  186) = (  -0.5000000   0.1160820   0.1632939), wk =   0.0028490
        k(  187) = (  -0.5000000   0.0542047   0.3265878), wk =   0.0028490
        k(  188) = (  -0.5000000  -0.0076725   0.4898817), wk =   0.0028490
        k(  189) = (  -0.5000000  -0.0695498   0.6531756), wk =   0.0028490
        k(  190) = (  -0.5000000  -0.1314271   0.8164694), wk =   0.0028490
        k(  191) = (  -0.5000000  -0.1933044   0.9797633), wk =   0.0028490
        k(  192) = (  -0.5000000   0.5492230  -0.9797633), wk =   0.0028490
        k(  193) = (  -0.5000000   0.4873457  -0.8164694), wk =   0.0028490
        k(  194) = (  -0.5000000   0.4254684  -0.6531756), wk =   0.0028490
        k(  195) = (  -0.5000000   0.3635911  -0.4898817), wk =   0.0028490
        k(  196) = (  -0.5000000   0.3017139  -0.3265878), wk =   0.0028490
        k(  197) = (  -0.5000000   0.2398366  -0.1632939), wk =   0.0028490
        k(  198) = (  -0.5000000   0.3559186   0.0000000), wk =   0.0028490
        k(  199) = (  -0.5000000   0.2940413   0.1632939), wk =   0.0028490
        k(  200) = (  -0.5000000   0.2321641   0.3265878), wk =   0.0028490
        k(  201) = (  -0.5000000   0.1702868   0.4898817), wk =   0.0028490
        k(  202) = (  -0.5000000   0.1084095   0.6531756), wk =   0.0028490
        k(  203) = (  -0.5000000   0.0465322   0.8164694), wk =   0.0028490
        k(  204) = (  -0.5000000  -0.0153451   0.9797633), wk =   0.0028490
        k(  205) = (  -0.5000000   0.7271823  -0.9797633), wk =   0.0028490
        k(  206) = (  -0.5000000   0.6653050  -0.8164694), wk =   0.0028490
        k(  207) = (  -0.5000000   0.6034277  -0.6531756), wk =   0.0028490
        k(  208) = (  -0.5000000   0.5415504  -0.4898817), wk =   0.0028490
        k(  209) = (  -0.5000000   0.4796732  -0.3265878), wk =   0.0028490
        k(  210) = (  -0.5000000   0.4177959  -0.1632939), wk =   0.0028490
        k(  211) = (  -0.5000000   0.5338779   0.0000000), wk =   0.0028490
        k(  212) = (  -0.5000000   0.4720006   0.1632939), wk =   0.0028490
        k(  213) = (  -0.5000000   0.4101234   0.3265878), wk =   0.0028490
        k(  214) = (  -0.5000000   0.3482461   0.4898817), wk =   0.0028490
        k(  215) = (  -0.5000000   0.2863688   0.6531756), wk =   0.0028490
        k(  216) = (  -0.5000000   0.2244915   0.8164694), wk =   0.0028490
        k(  217) = (  -0.5000000   0.1626142   0.9797633), wk =   0.0028490
        k(  218) = (  -0.5000000   0.9051416  -0.9797633), wk =   0.0028490
        k(  219) = (  -0.5000000   0.8432643  -0.8164694), wk =   0.0028490
        k(  220) = (  -0.5000000   0.7813870  -0.6531756), wk =   0.0028490
        k(  221) = (  -0.5000000   0.7195097  -0.4898817), wk =   0.0028490
        k(  222) = (  -0.5000000   0.6576325  -0.3265878), wk =   0.0028490
        k(  223) = (  -0.5000000   0.5957552  -0.1632939), wk =   0.0028490
        k(  224) = (  -0.5000000   0.7118372   0.0000000), wk =   0.0028490
        k(  225) = (  -0.5000000   0.6499599   0.1632939), wk =   0.0028490
        k(  226) = (  -0.5000000   0.5880827   0.3265878), wk =   0.0028490
        k(  227) = (  -0.5000000   0.5262054   0.4898817), wk =   0.0028490
        k(  228) = (  -0.5000000   0.4643281   0.6531756), wk =   0.0028490
        k(  229) = (  -0.5000000   0.4024508   0.8164694), wk =   0.0028490
        k(  230) = (  -0.5000000   0.3405735   0.9797633), wk =   0.0028490
        k(  231) = (  -0.5000000   1.0831009  -0.9797633), wk =   0.0028490
        k(  232) = (  -0.5000000   1.0212236  -0.8164694), wk =   0.0028490
        k(  233) = (  -0.5000000   0.9593463  -0.6531756), wk =   0.0028490
        k(  234) = (  -0.5000000   0.8974690  -0.4898817), wk =   0.0028490
        k(  235) = (  -0.5000000   0.8355918  -0.3265878), wk =   0.0028490
        k(  236) = (  -0.5000000   0.7737145  -0.1632939), wk =   0.0028490
        k(  237) = (   0.1666667   0.0618773  -0.1632939), wk =   0.0028490
        k(  238) = (   0.1666667   0.1237546  -0.3265878), wk =   0.0028490
        k(  239) = (   0.1666667   0.1856318  -0.4898817), wk =   0.0028490
        k(  240) = (   0.1666667   0.2475091  -0.6531756), wk =   0.0028490
        k(  241) = (   0.1666667   0.3093864  -0.8164694), wk =   0.0028490
        k(  242) = (   0.1666667   0.3712637  -0.9797633), wk =   0.0028490
        k(  243) = (   0.1666667  -0.1779593   0.0000000), wk =   0.0028490
        k(  244) = (   0.1666667  -0.1160820  -0.1632939), wk =   0.0028490
        k(  245) = (   0.1666667  -0.0542047  -0.3265878), wk =   0.0028490
        k(  246) = (   0.1666667   0.0076725  -0.4898817), wk =   0.0028490
        k(  247) = (   0.1666667   0.0695498  -0.6531756), wk =   0.0028490
        k(  248) = (   0.1666667   0.1314271  -0.8164694), wk =   0.0028490
        k(  249) = (   0.1666667   0.1933044  -0.9797633), wk =   0.0028490
        k(  250) = (   0.1666667  -0.5492230   0.9797633), wk =   0.0028490
        k(  251) = (   0.1666667  -0.4873457   0.8164694), wk =   0.0028490
        k(  252) = (   0.1666667  -0.4254684   0.6531756), wk =   0.0028490
        k(  253) = (   0.1666667  -0.3635911   0.4898817), wk =   0.0028490
        k(  254) = (   0.1666667  -0.3017139   0.3265878), wk =   0.0028490
        k(  255) = (   0.1666667  -0.2398366   0.1632939), wk =   0.0028490
        k(  256) = (   0.1666667  -0.3559186   0.0000000), wk =   0.0028490
        k(  257) = (   0.1666667  -0.2940413  -0.1632939), wk =   0.0028490
        k(  258) = (   0.1666667  -0.2321641  -0.3265878), wk =   0.0028490
        k(  259) = (   0.1666667  -0.1702868  -0.4898817), wk =   0.0028490
        k(  260) = (   0.1666667  -0.1084095  -0.6531756), wk =   0.0028490
        k(  261) = (   0.1666667  -0.0465322  -0.8164694), wk =   0.0028490
        k(  262) = (   0.1666667   0.0153451  -0.9797633), wk =   0.0028490
        k(  263) = (   0.1666667  -0.7271823   0.9797633), wk =   0.0028490
        k(  264) = (   0.1666667  -0.6653050   0.8164694), wk =   0.0028490
        k(  265) = (   0.1666667  -0.6034277   0.6531756), wk =   0.0028490
        k(  266) = (   0.1666667  -0.5415504   0.4898817), wk =   0.0028490
        k(  267) = (   0.1666667  -0.4796732   0.3265878), wk =   0.0028490
        k(  268) = (   0.1666667  -0.4177959   0.1632939), wk =   0.0028490
        k(  269) = (   0.1666667  -0.5338779   0.0000000), wk =   0.0028490
        k(  270) = (   0.1666667  -0.4720006  -0.1632939), wk =   0.0028490
        k(  271) = (   0.1666667  -0.4101234  -0.3265878), wk =   0.0028490
        k(  272) = (   0.1666667  -0.3482461  -0.4898817), wk =   0.0028490
        k(  273) = (   0.1666667  -0.2863688  -0.6531756), wk =   0.0028490
        k(  274) = (   0.1666667  -0.2244915  -0.8164694), wk =   0.0028490
        k(  275) = (   0.1666667  -0.1626142  -0.9797633), wk =   0.0028490
        k(  276) = (   0.1666667  -0.9051416   0.9797633), wk =   0.0028490
        k(  277) = (   0.1666667  -0.8432643   0.8164694), wk =   0.0028490
        k(  278) = (   0.1666667  -0.7813870   0.6531756), wk =   0.0028490
        k(  279) = (   0.1666667  -0.7195097   0.4898817), wk =   0.0028490
        k(  280) = (   0.1666667  -0.6576325   0.3265878), wk =   0.0028490
        k(  281) = (   0.1666667  -0.5957552   0.1632939), wk =   0.0028490
        k(  282) = (   0.1666667  -0.7118372   0.0000000), wk =   0.0028490
        k(  283) = (   0.1666667  -0.6499599  -0.1632939), wk =   0.0028490
        k(  284) = (   0.1666667  -0.5880827  -0.3265878), wk =   0.0028490
        k(  285) = (   0.1666667  -0.5262054  -0.4898817), wk =   0.0028490
        k(  286) = (   0.1666667  -0.4643281  -0.6531756), wk =   0.0028490
        k(  287) = (   0.1666667  -0.4024508  -0.8164694), wk =   0.0028490
        k(  288) = (   0.1666667  -0.3405735  -0.9797633), wk =   0.0028490
        k(  289) = (   0.1666667  -1.0831009   0.9797633), wk =   0.0028490
        k(  290) = (   0.1666667  -1.0212236   0.8164694), wk =   0.0028490
        k(  291) = (   0.1666667  -0.9593463   0.6531756), wk =   0.0028490
        k(  292) = (   0.1666667  -0.8974690   0.4898817), wk =   0.0028490
        k(  293) = (   0.1666667  -0.8355918   0.3265878), wk =   0.0028490
        k(  294) = (   0.1666667  -0.7737145   0.1632939), wk =   0.0028490
        k(  295) = (   0.3333333   0.0618773  -0.1632939), wk =   0.0028490
        k(  296) = (   0.3333333   0.1237546  -0.3265878), wk =   0.0028490
        k(  297) = (   0.3333333   0.1856318  -0.4898817), wk =   0.0028490
        k(  298) = (   0.3333333   0.2475091  -0.6531756), wk =   0.0028490
        k(  299) = (   0.3333333   0.3093864  -0.8164694), wk =   0.0028490
        k(  300) = (   0.3333333   0.3712637  -0.9797633), wk =   0.0028490
        k(  301) = (   0.3333333  -0.1779593   0.0000000), wk =   0.0028490
        k(  302) = (   0.3333333  -0.1160820  -0.1632939), wk =   0.0028490
        k(  303) = (   0.3333333  -0.0542047  -0.3265878), wk =   0.0028490
        k(  304) = (   0.3333333   0.0076725  -0.4898817), wk =   0.0028490
        k(  305) = (   0.3333333   0.0695498  -0.6531756), wk =   0.0028490
        k(  306) = (   0.3333333   0.1314271  -0.8164694), wk =   0.0028490
        k(  307) = (   0.3333333   0.1933044  -0.9797633), wk =   0.0028490
        k(  308) = (   0.3333333  -0.5492230   0.9797633), wk =   0.0028490
        k(  309) = (   0.3333333  -0.4873457   0.8164694), wk =   0.0028490
        k(  310) = (   0.3333333  -0.4254684   0.6531756), wk =   0.0028490
        k(  311) = (   0.3333333  -0.3635911   0.4898817), wk =   0.0028490
        k(  312) = (   0.3333333  -0.3017139   0.3265878), wk =   0.0028490
        k(  313) = (   0.3333333  -0.2398366   0.1632939), wk =   0.0028490
        k(  314) = (   0.3333333  -0.3559186   0.0000000), wk =   0.0028490
        k(  315) = (   0.3333333  -0.2940413  -0.1632939), wk =   0.0028490
        k(  316) = (   0.3333333  -0.2321641  -0.3265878), wk =   0.0028490
        k(  317) = (   0.3333333  -0.1702868  -0.4898817), wk =   0.0028490
        k(  318) = (   0.3333333  -0.1084095  -0.6531756), wk =   0.0028490
        k(  319) = (   0.3333333  -0.0465322  -0.8164694), wk =   0.0028490
        k(  320) = (   0.3333333   0.0153451  -0.9797633), wk =   0.0028490
        k(  321) = (   0.3333333  -0.7271823   0.9797633), wk =   0.0028490
        k(  322) = (   0.3333333  -0.6653050   0.8164694), wk =   0.0028490
        k(  323) = (   0.3333333  -0.6034277   0.6531756), wk =   0.0028490
        k(  324) = (   0.3333333  -0.5415504   0.4898817), wk =   0.0028490
        k(  325) = (   0.3333333  -0.4796732   0.3265878), wk =   0.0028490
        k(  326) = (   0.3333333  -0.4177959   0.1632939), wk =   0.0028490
        k(  327) = (   0.3333333  -0.5338779   0.0000000), wk =   0.0028490
        k(  328) = (   0.3333333  -0.4720006  -0.1632939), wk =   0.0028490
        k(  329) = (   0.3333333  -0.4101234  -0.3265878), wk =   0.0028490
        k(  330) = (   0.3333333  -0.3482461  -0.4898817), wk =   0.0028490
        k(  331) = (   0.3333333  -0.2863688  -0.6531756), wk =   0.0028490
        k(  332) = (   0.3333333  -0.2244915  -0.8164694), wk =   0.0028490
        k(  333) = (   0.3333333  -0.1626142  -0.9797633), wk =   0.0028490
        k(  334) = (   0.3333333  -0.9051416   0.9797633), wk =   0.0028490
        k(  335) = (   0.3333333  -0.8432643   0.8164694), wk =   0.0028490
        k(  336) = (   0.3333333  -0.7813870   0.6531756), wk =   0.0028490
        k(  337) = (   0.3333333  -0.7195097   0.4898817), wk =   0.0028490
        k(  338) = (   0.3333333  -0.6576325   0.3265878), wk =   0.0028490
        k(  339) = (   0.3333333  -0.5957552   0.1632939), wk =   0.0028490
        k(  340) = (   0.3333333  -0.7118372   0.0000000), wk =   0.0028490
        k(  341) = (   0.3333333  -0.6499599  -0.1632939), wk =   0.0028490
        k(  342) = (   0.3333333  -0.5880827  -0.3265878), wk =   0.0028490
        k(  343) = (   0.3333333  -0.5262054  -0.4898817), wk =   0.0028490
        k(  344) = (   0.3333333  -0.4643281  -0.6531756), wk =   0.0028490
        k(  345) = (   0.3333333  -0.4024508  -0.8164694), wk =   0.0028490
        k(  346) = (   0.3333333  -0.3405735  -0.9797633), wk =   0.0028490
        k(  347) = (   0.3333333  -1.0831009   0.9797633), wk =   0.0028490
        k(  348) = (   0.3333333  -1.0212236   0.8164694), wk =   0.0028490
        k(  349) = (   0.3333333  -0.9593463   0.6531756), wk =   0.0028490
        k(  350) = (   0.3333333  -0.8974690   0.4898817), wk =   0.0028490
        k(  351) = (   0.3333333  -0.8355918   0.3265878), wk =   0.0028490
        k(  352) = (   0.3333333  -0.7737145   0.1632939), wk =   0.0028490

                       cryst. coord.
        k(    1) = (   0.0000000   0.0000000   0.0000000), wk =   0.0014245
        k(    2) = (   0.0000000   0.0000000   0.0769231), wk =   0.0028490
        k(    3) = (   0.0000000   0.0000000   0.1538462), wk =   0.0028490
        k(    4) = (   0.0000000   0.0000000   0.2307692), wk =   0.0028490
        k(    5) = (   0.0000000   0.0000000   0.3076923), wk =   0.0028490
        k(    6) = (   0.0000000   0.0000000   0.3846154), wk =   0.0028490
        k(    7) = (   0.0000000   0.0000000   0.4615385), wk =   0.0028490
        k(    8) = (   0.0000000   0.1111111   0.0000000), wk =   0.0028490
        k(    9) = (   0.0000000   0.1111111   0.0769231), wk =   0.0028490
        k(   10) = (   0.0000000   0.1111111   0.1538462), wk =   0.0028490
        k(   11) = (   0.0000000   0.1111111   0.2307692), wk =   0.0028490
        k(   12) = (   0.0000000   0.1111111   0.3076923), wk =   0.0028490
        k(   13) = (   0.0000000   0.1111111   0.3846154), wk =   0.0028490
        k(   14) = (   0.0000000   0.1111111   0.4615385), wk =   0.0028490
        k(   15) = (   0.0000000   0.1111111  -0.4615385), wk =   0.0028490
        k(   16) = (   0.0000000   0.1111111  -0.3846154), wk =   0.0028490
        k(   17) = (   0.0000000   0.1111111  -0.3076923), wk =   0.0028490
        k(   18) = (   0.0000000   0.1111111  -0.2307692), wk =   0.0028490
        k(   19) = (   0.0000000   0.1111111  -0.1538462), wk =   0.0028490
        k(   20) = (   0.0000000   0.1111111  -0.0769231), wk =   0.0028490
        k(   21) = (   0.0000000   0.2222222   0.0000000), wk =   0.0028490
        k(   22) = (   0.0000000   0.2222222   0.0769231), wk =   0.0028490
        k(   23) = (   0.0000000   0.2222222   0.1538462), wk =   0.0028490
        k(   24) = (   0.0000000   0.2222222   0.2307692), wk =   0.0028490
        k(   25) = (   0.0000000   0.2222222   0.3076923), wk =   0.0028490
        k(   26) = (   0.0000000   0.2222222   0.3846154), wk =   0.0028490
        k(   27) = (   0.0000000   0.2222222   0.4615385), wk =   0.0028490
        k(   28) = (   0.0000000   0.2222222  -0.4615385), wk =   0.0028490
        k(   29) = (   0.0000000   0.2222222  -0.3846154), wk =   0.0028490
        k(   30) = (   0.0000000   0.2222222  -0.3076923), wk =   0.0028490
        k(   31) = (   0.0000000   0.2222222  -0.2307692), wk =   0.0028490
        k(   32) = (   0.0000000   0.2222222  -0.1538462), wk =   0.0028490
        k(   33) = (   0.0000000   0.2222222  -0.0769231), wk =   0.0028490
        k(   34) = (   0.0000000   0.3333333   0.0000000), wk =   0.0028490
        k(   35) = (   0.0000000   0.3333333   0.0769231), wk =   0.0028490
        k(   36) = (   0.0000000   0.3333333   0.1538462), wk =   0.0028490
        k(   37) = (   0.0000000   0.3333333   0.2307692), wk =   0.0028490
        k(   38) = (   0.0000000   0.3333333   0.3076923), wk =   0.0028490
        k(   39) = (   0.0000000   0.3333333   0.3846154), wk =   0.0028490
        k(   40) = (   0.0000000   0.3333333   0.4615385), wk =   0.0028490
        k(   41) = (   0.0000000   0.3333333  -0.4615385), wk =   0.0028490
        k(   42) = (   0.0000000   0.3333333  -0.3846154), wk =   0.0028490
        k(   43) = (   0.0000000   0.3333333  -0.3076923), wk =   0.0028490
        k(   44) = (   0.0000000   0.3333333  -0.2307692), wk =   0.0028490
        k(   45) = (   0.0000000   0.3333333  -0.1538462), wk =   0.0028490
        k(   46) = (   0.0000000   0.3333333  -0.0769231), wk =   0.0028490
        k(   47) = (   0.0000000   0.4444444   0.0000000), wk =   0.0028490
        k(   48) = (   0.0000000   0.4444444   0.0769231), wk =   0.0028490
        k(   49) = (   0.0000000   0.4444444   0.1538462), wk =   0.0028490
        k(   50) = (   0.0000000   0.4444444   0.2307692), wk =   0.0028490
        k(   51) = (   0.0000000   0.4444444   0.3076923), wk =   0.0028490
        k(   52) = (   0.0000000   0.4444444   0.3846154), wk =   0.0028490
        k(   53) = (   0.0000000   0.4444444   0.4615385), wk =   0.0028490
        k(   54) = (   0.0000000   0.4444444  -0.4615385), wk =   0.0028490
        k(   55) = (   0.0000000   0.4444444  -0.3846154), wk =   0.0028490
        k(   56) = (   0.0000000   0.4444444  -0.3076923), wk =   0.0028490
        k(   57) = (   0.0000000   0.4444444  -0.2307692), wk =   0.0028490
        k(   58) = (   0.0000000   0.4444444  -0.1538462), wk =   0.0028490
        k(   59) = (   0.0000000   0.4444444  -0.0769231), wk =   0.0028490
        k(   60) = (   0.1666667   0.0000000   0.0000000), wk =   0.0028490
        k(   61) = (   0.1666667   0.0000000   0.0769231), wk =   0.0028490
        k(   62) = (   0.1666667   0.0000000   0.1538462), wk =   0.0028490
        k(   63) = (   0.1666667   0.0000000   0.2307692), wk =   0.0028490
        k(   64) = (   0.1666667   0.0000000   0.3076923), wk =   0.0028490
        k(   65) = (   0.1666667   0.0000000   0.3846154), wk =   0.0028490
        k(   66) = (   0.1666667   0.0000000   0.4615385), wk =   0.0028490
        k(   67) = (   0.1666667   0.1111111   0.0000000), wk =   0.0028490
        k(   68) = (   0.1666667   0.1111111   0.0769231), wk =   0.0028490
        k(   69) = (   0.1666667   0.1111111   0.1538462), wk =   0.0028490
        k(   70) = (   0.1666667   0.1111111   0.2307692), wk =   0.0028490
        k(   71) = (   0.1666667   0.1111111   0.3076923), wk =   0.0028490
        k(   72) = (   0.1666667   0.1111111   0.3846154), wk =   0.0028490
        k(   73) = (   0.1666667   0.1111111   0.4615385), wk =   0.0028490
        k(   74) = (   0.1666667   0.1111111  -0.4615385), wk =   0.0028490
        k(   75) = (   0.1666667   0.1111111  -0.3846154), wk =   0.0028490
        k(   76) = (   0.1666667   0.1111111  -0.3076923), wk =   0.0028490
        k(   77) = (   0.1666667   0.1111111  -0.2307692), wk =   0.0028490
        k(   78) = (   0.1666667   0.1111111  -0.1538462), wk =   0.0028490
        k(   79) = (   0.1666667   0.1111111  -0.0769231), wk =   0.0028490
        k(   80) = (   0.1666667   0.2222222   0.0000000), wk =   0.0028490
        k(   81) = (   0.1666667   0.2222222   0.0769231), wk =   0.0028490
        k(   82) = (   0.1666667   0.2222222   0.1538462), wk =   0.0028490
        k(   83) = (   0.1666667   0.2222222   0.2307692), wk =   0.0028490
        k(   84) = (   0.1666667   0.2222222   0.3076923), wk =   0.0028490
        k(   85) = (   0.1666667   0.2222222   0.3846154), wk =   0.0028490
        k(   86) = (   0.1666667   0.2222222   0.4615385), wk =   0.0028490
        k(   87) = (   0.1666667   0.2222222  -0.4615385), wk =   0.0028490
        k(   88) = (   0.1666667   0.2222222  -0.3846154), wk =   0.0028490
        k(   89) = (   0.1666667   0.2222222  -0.3076923), wk =   0.0028490
        k(   90) = (   0.1666667   0.2222222  -0.2307692), wk =   0.0028490
        k(   91) = (   0.1666667   0.2222222  -0.1538462), wk =   0.0028490
        k(   92) = (   0.1666667   0.2222222  -0.0769231), wk =   0.0028490
        k(   93) = (   0.1666667   0.3333333   0.0000000), wk =   0.0028490
        k(   94) = (   0.1666667   0.3333333   0.0769231), wk =   0.0028490
        k(   95) = (   0.1666667   0.3333333   0.1538462), wk =   0.0028490
        k(   96) = (   0.1666667   0.3333333   0.2307692), wk =   0.0028490
        k(   97) = (   0.1666667   0.3333333   0.3076923), wk =   0.0028490
        k(   98) = (   0.1666667   0.3333333   0.3846154), wk =   0.0028490
        k(   99) = (   0.1666667   0.3333333   0.4615385), wk =   0.0028490
        k(  100) = (   0.1666667   0.3333333  -0.4615385), wk =   0.0028490
        k(  101) = (   0.1666667   0.3333333  -0.3846154), wk =   0.0028490
        k(  102) = (   0.1666667   0.3333333  -0.3076923), wk =   0.0028490
        k(  103) = (   0.1666667   0.3333333  -0.2307692), wk =   0.0028490
        k(  104) = (   0.1666667   0.3333333  -0.1538462), wk =   0.0028490
        k(  105) = (   0.1666667   0.3333333  -0.0769231), wk =   0.0028490
        k(  106) = (   0.1666667   0.4444444   0.0000000), wk =   0.0028490
        k(  107) = (   0.1666667   0.4444444   0.0769231), wk =   0.0028490
        k(  108) = (   0.1666667   0.4444444   0.1538462), wk =   0.0028490
        k(  109) = (   0.1666667   0.4444444   0.2307692), wk =   0.0028490
        k(  110) = (   0.1666667   0.4444444   0.3076923), wk =   0.0028490
        k(  111) = (   0.1666667   0.4444444   0.3846154), wk =   0.0028490
        k(  112) = (   0.1666667   0.4444444   0.4615385), wk =   0.0028490
        k(  113) = (   0.1666667   0.4444444  -0.4615385), wk =   0.0028490
        k(  114) = (   0.1666667   0.4444444  -0.3846154), wk =   0.0028490
        k(  115) = (   0.1666667   0.4444444  -0.3076923), wk =   0.0028490
        k(  116) = (   0.1666667   0.4444444  -0.2307692), wk =   0.0028490
        k(  117) = (   0.1666667   0.4444444  -0.1538462), wk =   0.0028490
        k(  118) = (   0.1666667   0.4444444  -0.0769231), wk =   0.0028490
        k(  119) = (   0.3333333   0.0000000   0.0000000), wk =   0.0028490
        k(  120) = (   0.3333333   0.0000000   0.0769231), wk =   0.0028490
        k(  121) = (   0.3333333   0.0000000   0.1538462), wk =   0.0028490
        k(  122) = (   0.3333333   0.0000000   0.2307692), wk =   0.0028490
        k(  123) = (   0.3333333   0.0000000   0.3076923), wk =   0.0028490
        k(  124) = (   0.3333333   0.0000000   0.3846154), wk =   0.0028490
        k(  125) = (   0.3333333   0.0000000   0.4615385), wk =   0.0028490
        k(  126) = (   0.3333333   0.1111111   0.0000000), wk =   0.0028490
        k(  127) = (   0.3333333   0.1111111   0.0769231), wk =   0.0028490
        k(  128) = (   0.3333333   0.1111111   0.1538462), wk =   0.0028490
        k(  129) = (   0.3333333   0.1111111   0.2307692), wk =   0.0028490
        k(  130) = (   0.3333333   0.1111111   0.3076923), wk =   0.0028490
        k(  131) = (   0.3333333   0.1111111   0.3846154), wk =   0.0028490
        k(  132) = (   0.3333333   0.1111111   0.4615385), wk =   0.0028490
        k(  133) = (   0.3333333   0.1111111  -0.4615385), wk =   0.0028490
        k(  134) = (   0.3333333   0.1111111  -0.3846154), wk =   0.0028490
        k(  135) = (   0.3333333   0.1111111  -0.3076923), wk =   0.0028490
        k(  136) = (   0.3333333   0.1111111  -0.2307692), wk =   0.0028490
        k(  137) = (   0.3333333   0.1111111  -0.1538462), wk =   0.0028490
        k(  138) = (   0.3333333   0.1111111  -0.0769231), wk =   0.0028490
        k(  139) = (   0.3333333   0.2222222   0.0000000), wk =   0.0028490
        k(  140) = (   0.3333333   0.2222222   0.0769231), wk =   0.0028490
        k(  141) = (   0.3333333   0.2222222   0.1538462), wk =   0.0028490
        k(  142) = (   0.3333333   0.2222222   0.2307692), wk =   0.0028490
        k(  143) = (   0.3333333   0.2222222   0.3076923), wk =   0.0028490
        k(  144) = (   0.3333333   0.2222222   0.3846154), wk =   0.0028490
        k(  145) = (   0.3333333   0.2222222   0.4615385), wk =   0.0028490
        k(  146) = (   0.3333333   0.2222222  -0.4615385), wk =   0.0028490
        k(  147) = (   0.3333333   0.2222222  -0.3846154), wk =   0.0028490
        k(  148) = (   0.3333333   0.2222222  -0.3076923), wk =   0.0028490
        k(  149) = (   0.3333333   0.2222222  -0.2307692), wk =   0.0028490
        k(  150) = (   0.3333333   0.2222222  -0.1538462), wk =   0.0028490
        k(  151) = (   0.3333333   0.2222222  -0.0769231), wk =   0.0028490
        k(  152) = (   0.3333333   0.3333333   0.0000000), wk =   0.0028490
        k(  153) = (   0.3333333   0.3333333   0.0769231), wk =   0.0028490
        k(  154) = (   0.3333333   0.3333333   0.1538462), wk =   0.0028490
        k(  155) = (   0.3333333   0.3333333   0.2307692), wk =   0.0028490
        k(  156) = (   0.3333333   0.3333333   0.3076923), wk =   0.0028490
        k(  157) = (   0.3333333   0.3333333   0.3846154), wk =   0.0028490
        k(  158) = (   0.3333333   0.3333333   0.4615385), wk =   0.0028490
        k(  159) = (   0.3333333   0.3333333  -0.4615385), wk =   0.0028490
        k(  160) = (   0.3333333   0.3333333  -0.3846154), wk =   0.0028490
        k(  161) = (   0.3333333   0.3333333  -0.3076923), wk =   0.0028490
        k(  162) = (   0.3333333   0.3333333  -0.2307692), wk =   0.0028490
        k(  163) = (   0.3333333   0.3333333  -0.1538462), wk =   0.0028490
        k(  164) = (   0.3333333   0.3333333  -0.0769231), wk =   0.0028490
        k(  165) = (   0.3333333   0.4444444   0.0000000), wk =   0.0028490
        k(  166) = (   0.3333333   0.4444444   0.0769231), wk =   0.0028490
        k(  167) = (   0.3333333   0.4444444   0.1538462), wk =   0.0028490
        k(  168) = (   0.3333333   0.4444444   0.2307692), wk =   0.0028490
        k(  169) = (   0.3333333   0.4444444   0.3076923), wk =   0.0028490
        k(  170) = (   0.3333333   0.4444444   0.3846154), wk =   0.0028490
        k(  171) = (   0.3333333   0.4444444   0.4615385), wk =   0.0028490
        k(  172) = (   0.3333333   0.4444444  -0.4615385), wk =   0.0028490
        k(  173) = (   0.3333333   0.4444444  -0.3846154), wk =   0.0028490
        k(  174) = (   0.3333333   0.4444444  -0.3076923), wk =   0.0028490
        k(  175) = (   0.3333333   0.4444444  -0.2307692), wk =   0.0028490
        k(  176) = (   0.3333333   0.4444444  -0.1538462), wk =   0.0028490
        k(  177) = (   0.3333333   0.4444444  -0.0769231), wk =   0.0028490
        k(  178) = (  -0.5000000   0.0000000   0.0000000), wk =   0.0014245
        k(  179) = (  -0.5000000   0.0000000   0.0769231), wk =   0.0028490
        k(  180) = (  -0.5000000   0.0000000   0.1538462), wk =   0.0028490
        k(  181) = (  -0.5000000   0.0000000   0.2307692), wk =   0.0028490
        k(  182) = (  -0.5000000   0.0000000   0.3076923), wk =   0.0028490
        k(  183) = (  -0.5000000   0.0000000   0.3846154), wk =   0.0028490
        k(  184) = (  -0.5000000   0.0000000   0.4615385), wk =   0.0028490
        k(  185) = (  -0.5000000   0.1111111   0.0000000), wk =   0.0028490
        k(  186) = (  -0.5000000   0.1111111   0.0769231), wk =   0.0028490
        k(  187) = (  -0.5000000   0.1111111   0.1538462), wk =   0.0028490
        k(  188) = (  -0.5000000   0.1111111   0.2307692), wk =   0.0028490
        k(  189) = (  -0.5000000   0.1111111   0.3076923), wk =   0.0028490
        k(  190) = (  -0.5000000   0.1111111   0.3846154), wk =   0.0028490
        k(  191) = (  -0.5000000   0.1111111   0.4615385), wk =   0.0028490
        k(  192) = (  -0.5000000   0.1111111  -0.4615385), wk =   0.0028490
        k(  193) = (  -0.5000000   0.1111111  -0.3846154), wk =   0.0028490
        k(  194) = (  -0.5000000   0.1111111  -0.3076923), wk =   0.0028490
        k(  195) = (  -0.5000000   0.1111111  -0.2307692), wk =   0.0028490
        k(  196) = (  -0.5000000   0.1111111  -0.1538462), wk =   0.0028490
        k(  197) = (  -0.5000000   0.1111111  -0.0769231), wk =   0.0028490
        k(  198) = (  -0.5000000   0.2222222   0.0000000), wk =   0.0028490
        k(  199) = (  -0.5000000   0.2222222   0.0769231), wk =   0.0028490
        k(  200) = (  -0.5000000   0.2222222   0.1538462), wk =   0.0028490
        k(  201) = (  -0.5000000   0.2222222   0.2307692), wk =   0.0028490
        k(  202) = (  -0.5000000   0.2222222   0.3076923), wk =   0.0028490
        k(  203) = (  -0.5000000   0.2222222   0.3846154), wk =   0.0028490
        k(  204) = (  -0.5000000   0.2222222   0.4615385), wk =   0.0028490
        k(  205) = (  -0.5000000   0.2222222  -0.4615385), wk =   0.0028490
        k(  206) = (  -0.5000000   0.2222222  -0.3846154), wk =   0.0028490
        k(  207) = (  -0.5000000   0.2222222  -0.3076923), wk =   0.0028490
        k(  208) = (  -0.5000000   0.2222222  -0.2307692), wk =   0.0028490
        k(  209) = (  -0.5000000   0.2222222  -0.1538462), wk =   0.0028490
        k(  210) = (  -0.5000000   0.2222222  -0.0769231), wk =   0.0028490
        k(  211) = (  -0.5000000   0.3333333   0.0000000), wk =   0.0028490
        k(  212) = (  -0.5000000   0.3333333   0.0769231), wk =   0.0028490
        k(  213) = (  -0.5000000   0.3333333   0.1538462), wk =   0.0028490
        k(  214) = (  -0.5000000   0.3333333   0.2307692), wk =   0.0028490
        k(  215) = (  -0.5000000   0.3333333   0.3076923), wk =   0.0028490
        k(  216) = (  -0.5000000   0.3333333   0.3846154), wk =   0.0028490
        k(  217) = (  -0.5000000   0.3333333   0.4615385), wk =   0.0028490
        k(  218) = (  -0.5000000   0.3333333  -0.4615385), wk =   0.0028490
        k(  219) = (  -0.5000000   0.3333333  -0.3846154), wk =   0.0028490
        k(  220) = (  -0.5000000   0.3333333  -0.3076923), wk =   0.0028490
        k(  221) = (  -0.5000000   0.3333333  -0.2307692), wk =   0.0028490
        k(  222) = (  -0.5000000   0.3333333  -0.1538462), wk =   0.0028490
        k(  223) = (  -0.5000000   0.3333333  -0.0769231), wk =   0.0028490
        k(  224) = (  -0.5000000   0.4444444   0.0000000), wk =   0.0028490
        k(  225) = (  -0.5000000   0.4444444   0.0769231), wk =   0.0028490
        k(  226) = (  -0.5000000   0.4444444   0.1538462), wk =   0.0028490
        k(  227) = (  -0.5000000   0.4444444   0.2307692), wk =   0.0028490
        k(  228) = (  -0.5000000   0.4444444   0.3076923), wk =   0.0028490
        k(  229) = (  -0.5000000   0.4444444   0.3846154), wk =   0.0028490
        k(  230) = (  -0.5000000   0.4444444   0.4615385), wk =   0.0028490
        k(  231) = (  -0.5000000   0.4444444  -0.4615385), wk =   0.0028490
        k(  232) = (  -0.5000000   0.4444444  -0.3846154), wk =   0.0028490
        k(  233) = (  -0.5000000   0.4444444  -0.3076923), wk =   0.0028490
        k(  234) = (  -0.5000000   0.4444444  -0.2307692), wk =   0.0028490
        k(  235) = (  -0.5000000   0.4444444  -0.1538462), wk =   0.0028490
        k(  236) = (  -0.5000000   0.4444444  -0.0769231), wk =   0.0028490
        k(  237) = (   0.1666667  -0.0000000  -0.0769231), wk =   0.0028490
        k(  238) = (   0.1666667  -0.0000000  -0.1538462), wk =   0.0028490
        k(  239) = (   0.1666667  -0.0000000  -0.2307692), wk =   0.0028490
        k(  240) = (   0.1666667  -0.0000000  -0.3076923), wk =   0.0028490
        k(  241) = (   0.1666667  -0.0000000  -0.3846154), wk =   0.0028490
        k(  242) = (   0.1666667  -0.0000000  -0.4615385), wk =   0.0028490
        k(  243) = (   0.1666667  -0.1111111   0.0000000), wk =   0.0028490
        k(  244) = (   0.1666667  -0.1111111  -0.0769231), wk =   0.0028490
        k(  245) = (   0.1666667  -0.1111111  -0.1538462), wk =   0.0028490
        k(  246) = (   0.1666667  -0.1111111  -0.2307692), wk =   0.0028490
        k(  247) = (   0.1666667  -0.1111111  -0.3076923), wk =   0.0028490
        k(  248) = (   0.1666667  -0.1111111  -0.3846154), wk =   0.0028490
        k(  249) = (   0.1666667  -0.1111111  -0.4615385), wk =   0.0028490
        k(  250) = (   0.1666667  -0.1111111   0.4615385), wk =   0.0028490
        k(  251) = (   0.1666667  -0.1111111   0.3846154), wk =   0.0028490
        k(  252) = (   0.1666667  -0.1111111   0.3076923), wk =   0.0028490
        k(  253) = (   0.1666667  -0.1111111   0.2307692), wk =   0.0028490
        k(  254) = (   0.1666667  -0.1111111   0.1538462), wk =   0.0028490
        k(  255) = (   0.1666667  -0.1111111   0.0769231), wk =   0.0028490
        k(  256) = (   0.1666667  -0.2222222   0.0000000), wk =   0.0028490
        k(  257) = (   0.1666667  -0.2222222  -0.0769231), wk =   0.0028490
        k(  258) = (   0.1666667  -0.2222222  -0.1538462), wk =   0.0028490
        k(  259) = (   0.1666667  -0.2222222  -0.2307692), wk =   0.0028490
        k(  260) = (   0.1666667  -0.2222222  -0.3076923), wk =   0.0028490
        k(  261) = (   0.1666667  -0.2222222  -0.3846154), wk =   0.0028490
        k(  262) = (   0.1666667  -0.2222222  -0.4615385), wk =   0.0028490
        k(  263) = (   0.1666667  -0.2222222   0.4615385), wk =   0.0028490
        k(  264) = (   0.1666667  -0.2222222   0.3846154), wk =   0.0028490
        k(  265) = (   0.1666667  -0.2222222   0.3076923), wk =   0.0028490
        k(  266) = (   0.1666667  -0.2222222   0.2307692), wk =   0.0028490
        k(  267) = (   0.1666667  -0.2222222   0.1538462), wk =   0.0028490
        k(  268) = (   0.1666667  -0.2222222   0.0769231), wk =   0.0028490
        k(  269) = (   0.1666667  -0.3333333   0.0000000), wk =   0.0028490
        k(  270) = (   0.1666667  -0.3333333  -0.0769231), wk =   0.0028490
        k(  271) = (   0.1666667  -0.3333333  -0.1538462), wk =   0.0028490
        k(  272) = (   0.1666667  -0.3333333  -0.2307692), wk =   0.0028490
        k(  273) = (   0.1666667  -0.3333333  -0.3076923), wk =   0.0028490
        k(  274) = (   0.1666667  -0.3333333  -0.3846154), wk =   0.0028490
        k(  275) = (   0.1666667  -0.3333333  -0.4615385), wk =   0.0028490
        k(  276) = (   0.1666667  -0.3333333   0.4615385), wk =   0.0028490
        k(  277) = (   0.1666667  -0.3333333   0.3846154), wk =   0.0028490
        k(  278) = (   0.1666667  -0.3333333   0.3076923), wk =   0.0028490
        k(  279) = (   0.1666667  -0.3333333   0.2307692), wk =   0.0028490
        k(  280) = (   0.1666667  -0.3333333   0.1538462), wk =   0.0028490
        k(  281) = (   0.1666667  -0.3333333   0.0769231), wk =   0.0028490
        k(  282) = (   0.1666667  -0.4444444   0.0000000), wk =   0.0028490
        k(  283) = (   0.1666667  -0.4444444  -0.0769231), wk =   0.0028490
        k(  284) = (   0.1666667  -0.4444444  -0.1538462), wk =   0.0028490
        k(  285) = (   0.1666667  -0.4444444  -0.2307692), wk =   0.0028490
        k(  286) = (   0.1666667  -0.4444444  -0.3076923), wk =   0.0028490
        k(  287) = (   0.1666667  -0.4444444  -0.3846154), wk =   0.0028490
        k(  288) = (   0.1666667  -0.4444444  -0.4615385), wk =   0.0028490
        k(  289) = (   0.1666667  -0.4444444   0.4615385), wk =   0.0028490
        k(  290) = (   0.1666667  -0.4444444   0.3846154), wk =   0.0028490
        k(  291) = (   0.1666667  -0.4444444   0.3076923), wk =   0.0028490
        k(  292) = (   0.1666667  -0.4444444   0.2307692), wk =   0.0028490
        k(  293) = (   0.1666667  -0.4444444   0.1538462), wk =   0.0028490
        k(  294) = (   0.1666667  -0.4444444   0.0769231), wk =   0.0028490
        k(  295) = (   0.3333333  -0.0000000  -0.0769231), wk =   0.0028490
        k(  296) = (   0.3333333  -0.0000000  -0.1538462), wk =   0.0028490
        k(  297) = (   0.3333333  -0.0000000  -0.2307692), wk =   0.0028490
        k(  298) = (   0.3333333  -0.0000000  -0.3076923), wk =   0.0028490
        k(  299) = (   0.3333333  -0.0000000  -0.3846154), wk =   0.0028490
        k(  300) = (   0.3333333  -0.0000000  -0.4615385), wk =   0.0028490
        k(  301) = (   0.3333333  -0.1111111   0.0000000), wk =   0.0028490
        k(  302) = (   0.3333333  -0.1111111  -0.0769231), wk =   0.0028490
        k(  303) = (   0.3333333  -0.1111111  -0.1538462), wk =   0.0028490
        k(  304) = (   0.3333333  -0.1111111  -0.2307692), wk =   0.0028490
        k(  305) = (   0.3333333  -0.1111111  -0.3076923), wk =   0.0028490
        k(  306) = (   0.3333333  -0.1111111  -0.3846154), wk =   0.0028490
        k(  307) = (   0.3333333  -0.1111111  -0.4615385), wk =   0.0028490
        k(  308) = (   0.3333333  -0.1111111   0.4615385), wk =   0.0028490
        k(  309) = (   0.3333333  -0.1111111   0.3846154), wk =   0.0028490
        k(  310) = (   0.3333333  -0.1111111   0.3076923), wk =   0.0028490
        k(  311) = (   0.3333333  -0.1111111   0.2307692), wk =   0.0028490
        k(  312) = (   0.3333333  -0.1111111   0.1538462), wk =   0.0028490
        k(  313) = (   0.3333333  -0.1111111   0.0769231), wk =   0.0028490
        k(  314) = (   0.3333333  -0.2222222   0.0000000), wk =   0.0028490
        k(  315) = (   0.3333333  -0.2222222  -0.0769231), wk =   0.0028490
        k(  316) = (   0.3333333  -0.2222222  -0.1538462), wk =   0.0028490
        k(  317) = (   0.3333333  -0.2222222  -0.2307692), wk =   0.0028490
        k(  318) = (   0.3333333  -0.2222222  -0.3076923), wk =   0.0028490
        k(  319) = (   0.3333333  -0.2222222  -0.3846154), wk =   0.0028490
        k(  320) = (   0.3333333  -0.2222222  -0.4615385), wk =   0.0028490
        k(  321) = (   0.3333333  -0.2222222   0.4615385), wk =   0.0028490
        k(  322) = (   0.3333333  -0.2222222   0.3846154), wk =   0.0028490
        k(  323) = (   0.3333333  -0.2222222   0.3076923), wk =   0.0028490
        k(  324) = (   0.3333333  -0.2222222   0.2307692), wk =   0.0028490
        k(  325) = (   0.3333333  -0.2222222   0.1538462), wk =   0.0028490
        k(  326) = (   0.3333333  -0.2222222   0.0769231), wk =   0.0028490
        k(  327) = (   0.3333333  -0.3333333   0.0000000), wk =   0.0028490
        k(  328) = (   0.3333333  -0.3333333  -0.0769231), wk =   0.0028490
        k(  329) = (   0.3333333  -0.3333333  -0.1538462), wk =   0.0028490
        k(  330) = (   0.3333333  -0.3333333  -0.2307692), wk =   0.0028490
        k(  331) = (   0.3333333  -0.3333333  -0.3076923), wk =   0.0028490
        k(  332) = (   0.3333333  -0.3333333  -0.3846154), wk =   0.0028490
        k(  333) = (   0.3333333  -0.3333333  -0.4615385), wk =   0.0028490
        k(  334) = (   0.3333333  -0.3333333   0.4615385), wk =   0.0028490
        k(  335) = (   0.3333333  -0.3333333   0.3846154), wk =   0.0028490
        k(  336) = (   0.3333333  -0.3333333   0.3076923), wk =   0.0028490
        k(  337) = (   0.3333333  -0.3333333   0.2307692), wk =   0.0028490
        k(  338) = (   0.3333333  -0.3333333   0.1538462), wk =   0.0028490
        k(  339) = (   0.3333333  -0.3333333   0.0769231), wk =   0.0028490
        k(  340) = (   0.3333333  -0.4444444   0.0000000), wk =   0.0028490
        k(  341) = (   0.3333333  -0.4444444  -0.0769231), wk =   0.0028490
        k(  342) = (   0.3333333  -0.4444444  -0.1538462), wk =   0.0028490
        k(  343) = (   0.3333333  -0.4444444  -0.2307692), wk =   0.0028490
        k(  344) = (   0.3333333  -0.4444444  -0.3076923), wk =   0.0028490
        k(  345) = (   0.3333333  -0.4444444  -0.3846154), wk =   0.0028490
        k(  346) = (   0.3333333  -0.4444444  -0.4615385), wk =   0.0028490
        k(  347) = (   0.3333333  -0.4444444   0.4615385), wk =   0.0028490
        k(  348) = (   0.3333333  -0.4444444   0.3846154), wk =   0.0028490
        k(  349) = (   0.3333333  -0.4444444   0.3076923), wk =   0.0028490
        k(  350) = (   0.3333333  -0.4444444   0.2307692), wk =   0.0028490
        k(  351) = (   0.3333333  -0.4444444   0.1538462), wk =   0.0028490
        k(  352) = (   0.3333333  -0.4444444   0.0769231), wk =   0.0028490

     Dense  grid:   331113 G-vectors     FFT dimensions: ( 135,  90,  64)

     Smooth grid:   117017 G-vectors     FFT dimensions: (  96,  64,  45)

     Estimated max dynamical RAM per process >      59.27MB

     Estimated total allocated dynamical RAM >   60694.99MB
     Generating pointlists ...
     new r_m :   0.0847 (alat units)  1.8098 (a.u.) for type    1
     new r_m :   0.0950 (alat units)  2.0294 (a.u.) for type    2

     Initial potential from superposition of free atoms
     Check: negative starting charge=(component1):   -0.515464
     Check: negative starting charge=(component2):   -0.210157

     starting charge  191.96750, renormalised to  192.00000

     negative rho (up, down):  5.156E-01 2.102E-01
     Starting wfc are  204 randomized atomic wfcs

     total cpu time spent up to now is       20.8 secs

     per-process dynamical memory:    81.4 Mb

     Self-consistent Calculation

     iteration #  1     ecut=    45.00 Ry     beta=0.35
     Davidson diagonalization with overlap
     ethr =  1.00E-02,  avg # of iterations =  2.5

     negative rho (up, down):  4.642E-01 2.632E-01

     total cpu time spent up to now is       38.5 secs

     total energy              =   -1326.81065206 Ry
     Harris-Foulkes estimate   =   -1325.34956118 Ry
     estimated scf accuracy    <       2.14995553 Ry

     total magnetization       =     9.84 Bohr mag/cell
     absolute magnetization    =    11.88 Bohr mag/cell

     iteration #  2     ecut=    45.00 Ry     beta=0.35
     Davidson diagonalization with overlap
     ethr =  1.12E-03,  avg # of iterations =  1.7

     negative rho (up, down):  4.012E-01 3.326E-01

     total cpu time spent up to now is       52.8 secs

     total energy              =   -1328.05595571 Ry
     Harris-Foulkes estimate   =   -1326.93002778 Ry
     estimated scf accuracy    <       0.94000605 Ry

     total magnetization       =     6.81 Bohr mag/cell
     absolute magnetization    =     8.99 Bohr mag/cell

     iteration #  3     ecut=    45.00 Ry     beta=0.35
     Davidson diagonalization with overlap
     ethr =  4.90E-04,  avg # of iterations =  5.4

     negative rho (up, down):  3.887E-01 3.464E-01

     total cpu time spent up to now is       80.1 secs

     total energy              =   -1328.06719015 Ry
     Harris-Foulkes estimate   =   -1328.37752662 Ry
     estimated scf accuracy    <       3.08091175 Ry

     total magnetization       =     3.39 Bohr mag/cell
     absolute magnetization    =     4.82 Bohr mag/cell

     iteration #  4     ecut=    45.00 Ry     beta=0.35
     Davidson diagonalization with overlap
     ethr =  4.90E-04,  avg # of iterations =  4.9

     negative rho (up, down):  3.759E-01 3.611E-01

     total cpu time spent up to now is      103.9 secs

     total energy              =   -1328.38685251 Ry
     Harris-Foulkes estimate   =   -1328.36190441 Ry
     estimated scf accuracy    <       0.44784536 Ry

     total magnetization       =     1.99 Bohr mag/cell
     absolute magnetization    =     3.43 Bohr mag/cell

     iteration #  5     ecut=    45.00 Ry     beta=0.35
     Davidson diagonalization with overlap
     ethr =  2.33E-04,  avg # of iterations =  2.5

     negative rho (up, down):  3.686E-01 3.699E-01

     total cpu time spent up to now is      121.3 secs

     total energy              =   -1328.44820311 Ry
     Harris-Foulkes estimate   =   -1328.44087386 Ry
     estimated scf accuracy    <       0.09831688 Ry

     total magnetization       =     1.09 Bohr mag/cell
     absolute magnetization    =     2.27 Bohr mag/cell

     iteration #  6     ecut=    45.00 Ry     beta=0.35
     Davidson diagonalization with overlap
     ethr =  5.12E-05,  avg # of iterations =  4.9

     negative rho (up, down):  3.669E-01 3.720E-01

     total cpu time spent up to now is      151.0 secs

     total energy              =   -1328.46825057 Ry
     Harris-Foulkes estimate   =   -1328.46898435 Ry
     estimated scf accuracy    <       0.02792953 Ry

     total magnetization       =     0.55 Bohr mag/cell
     absolute magnetization    =     1.38 Bohr mag/cell

     iteration #  7     ecut=    45.00 Ry     beta=0.35
     Davidson diagonalization with overlap
     ethr =  1.45E-05,  avg # of iterations =  5.7

     negative rho (up, down):  3.667E-01 3.722E-01

     total cpu time spent up to now is      184.4 secs

     total energy              =   -1328.47493580 Ry
     Harris-Foulkes estimate   =   -1328.47352835 Ry
     estimated scf accuracy    <       0.00659804 Ry

     total magnetization       =     0.37 Bohr mag/cell
     absolute magnetization    =     1.03 Bohr mag/cell

     iteration #  8     ecut=    45.00 Ry     beta=0.35
     Davidson diagonalization with overlap
     ethr =  3.44E-06,  avg # of iterations =  6.5

     negative rho (up, down):  3.670E-01 3.720E-01

     total cpu time spent up to now is      221.1 secs

     total energy              =   -1328.47643980 Ry
     Harris-Foulkes estimate   =   -1328.47619973 Ry
     estimated scf accuracy    <       0.00443386 Ry

     total magnetization       =     0.28 Bohr mag/cell
     absolute magnetization    =     0.81 Bohr mag/cell

     iteration #  9     ecut=    45.00 Ry     beta=0.35
     Davidson diagonalization with overlap
     ethr =  2.31E-06,  avg # of iterations =  4.3

     negative rho (up, down):  3.675E-01 3.714E-01

     total cpu time spent up to now is      249.1 secs

     total energy              =   -1328.47852452 Ry
     Harris-Foulkes estimate   =   -1328.47704728 Ry
     estimated scf accuracy    <       0.00186930 Ry

     total magnetization       =     0.24 Bohr mag/cell
     absolute magnetization    =     0.73 Bohr mag/cell

     iteration # 10     ecut=    45.00 Ry     beta=0.35
     Davidson diagonalization with overlap
     ethr =  9.74E-07,  avg # of iterations =  2.7

     negative rho (up, down):  3.684E-01 3.706E-01

     total cpu time spent up to now is      265.6 secs

     total energy              =   -1328.48010517 Ry
     Harris-Foulkes estimate   =   -1328.47883267 Ry
     estimated scf accuracy    <       0.00034515 Ry

     total magnetization       =     0.17 Bohr mag/cell
     absolute magnetization    =     0.53 Bohr mag/cell

     iteration # 11     ecut=    45.00 Ry     beta=0.35
     Davidson diagonalization with overlap
     ethr =  1.80E-07,  avg # of iterations =  3.9

     negative rho (up, down):  3.689E-01 3.700E-01

     total cpu time spent up to now is      288.8 secs

     total energy              =   -1328.48074688 Ry
     Harris-Foulkes estimate   =   -1328.48039120 Ry
     estimated scf accuracy    <       0.00007361 Ry

     total magnetization       =     0.08 Bohr mag/cell
     absolute magnetization    =     0.27 Bohr mag/cell

     iteration # 12     ecut=    45.00 Ry     beta=0.35
     Davidson diagonalization with overlap
     ethr =  3.83E-08,  avg # of iterations =  3.9

     negative rho (up, down):  3.693E-01 3.697E-01

     total cpu time spent up to now is      313.5 secs

     total energy              =   -1328.48090859 Ry
     Harris-Foulkes estimate   =   -1328.48083493 Ry
     estimated scf accuracy    <       0.00002008 Ry

     total magnetization       =     0.03 Bohr mag/cell
     absolute magnetization    =     0.13 Bohr mag/cell

     iteration # 13     ecut=    45.00 Ry     beta=0.35
     Davidson diagonalization with overlap
     ethr =  1.05E-08,  avg # of iterations =  3.8

     negative rho (up, down):  3.694E-01 3.696E-01

     total cpu time spent up to now is      337.4 secs

     total energy              =   -1328.48094434 Ry
     Harris-Foulkes estimate   =   -1328.48092723 Ry
     estimated scf accuracy    <       0.00000686 Ry

     total magnetization       =     0.02 Bohr mag/cell
     absolute magnetization    =     0.06 Bohr mag/cell

     iteration # 14     ecut=    45.00 Ry     beta=0.35
     Davidson diagonalization with overlap
     ethr =  3.57E-09,  avg # of iterations =  3.8

     negative rho (up, down):  3.695E-01 3.695E-01

     total cpu time spent up to now is      359.8 secs

     total energy              =   -1328.48095302 Ry
     Harris-Foulkes estimate   =   -1328.48094984 Ry
     estimated scf accuracy    <       0.00000440 Ry

     total magnetization       =     0.01 Bohr mag/cell
     absolute magnetization    =     0.03 Bohr mag/cell

     iteration # 15     ecut=    45.00 Ry     beta=0.35
     Davidson diagonalization with overlap
     ethr =  2.29E-09,  avg # of iterations =  3.0

     negative rho (up, down):  3.695E-01 3.695E-01

     total cpu time spent up to now is      378.8 secs

     total energy              =   -1328.48095497 Ry
     Harris-Foulkes estimate   =   -1328.48095444 Ry
     estimated scf accuracy    <       0.00000170 Ry

     total magnetization       =     0.00 Bohr mag/cell
     absolute magnetization    =     0.02 Bohr mag/cell

     iteration # 16     ecut=    45.00 Ry     beta=0.35
     Davidson diagonalization with overlap
     ethr =  8.87E-10,  avg # of iterations =  3.0

     negative rho (up, down):  3.695E-01 3.695E-01

     total cpu time spent up to now is      395.3 secs

     total energy              =   -1328.48095595 Ry
     Harris-Foulkes estimate   =   -1328.48095529 Ry
     estimated scf accuracy    <       0.00000119 Ry

     total magnetization       =     0.00 Bohr mag/cell
     absolute magnetization    =     0.01 Bohr mag/cell

     iteration # 17     ecut=    45.00 Ry     beta=0.35
     Davidson diagonalization with overlap
     ethr =  6.19E-10,  avg # of iterations =  3.0

     negative rho (up, down):  3.695E-01 3.695E-01
 
     Magnetic moment per site:
     atom:    1    charge:    9.0735    magn:    0.0001    constr:    0.0000
     atom:    2    charge:    9.0784    magn:    0.0001    constr:    0.0000
     atom:    3    charge:    9.0596    magn:    0.0002    constr:    0.0000
     atom:    4    charge:    9.0771    magn:    0.0002    constr:    0.0000
     atom:    5    charge:    9.0835    magn:    0.0001    constr:    0.0000
     atom:    6    charge:    9.0859    magn:    0.0001    constr:    0.0000
     atom:    7    charge:    9.0852    magn:    0.0001    constr:    0.0000
     atom:    8    charge:    9.0630    magn:    0.0002    constr:    0.0000
     atom:    9    charge:    9.0851    magn:    0.0000    constr:    0.0000
     atom:   10    charge:    9.0853    magn:    0.0001    constr:    0.0000
     atom:   11    charge:    9.0647    magn:    0.0002    constr:    0.0000
     atom:   12    charge:    9.0835    magn:    0.0000    constr:    0.0000
     atom:   13    charge:    1.7877    magn:   -0.0001    constr:    0.0000
     atom:   14    charge:    1.8019    magn:   -0.0001    constr:    0.0000
     atom:   15    charge:    1.7988    magn:   -0.0001    constr:    0.0000
     atom:   16    charge:    1.7859    magn:   -0.0001    constr:    0.0000
     atom:   17    charge:    1.8053    magn:   -0.0001    constr:    0.0000
     atom:   18    charge:    1.7735    magn:   -0.0001    constr:    0.0000
     atom:   19    charge:    1.8031    magn:   -0.0001    constr:    0.0000
     atom:   20    charge:    1.8011    magn:   -0.0001    constr:    0.0000
     atom:   21    charge:    1.8034    magn:   -0.0001    constr:    0.0000
     atom:   22    charge:    1.7896    magn:   -0.0001    constr:    0.0000
     atom:   23    charge:    1.7928    magn:   -0.0001    constr:    0.0000
     atom:   24    charge:    1.7928    magn:   -0.0001    constr:    0.0000

     total cpu time spent up to now is      413.0 secs

     End of self-consistent calculation

 ------ SPIN UP ------------


          k = 0.0000 0.0000 0.0000 ( 14633 PWs)   bands (ev):

   -35.1773 -35.1517 -35.1408 -35.1273 -35.1178 -35.1053 -35.1043 -35.0981
   -35.0885 -35.0862 -35.0806 -35.0602 -13.4420 -13.4200 -13.4137 -13.4066
   -13.3962 -13.3636 -13.3570 -13.3400 -13.3252 -13.3071 -13.3014 -13.2892
   -13.2822 -13.2581 -13.2412 -13.2105 -13.1980 -13.1945 -13.1892 -13.1843
   -13.1794 -13.1632 -13.1586 -13.1430 -13.1394 -13.1309 -13.1229 -13.1207
   -13.1051 -13.0968 -13.0827 -13.0790 -13.0702 -13.0402 -13.0321 -13.0043
     2.1867   3.2200   3.3889   3.5478   4.0885   4.2281   6.0907   6.1462
     6.2319   6.3385   6.7591   7.5276   8.8608   8.9275   8.9815   9.1572
     9.2475   9.8450   9.9415   9.9614  10.0331  10.0787  10.1294  10.2461
    10.7647  10.8069  10.8266  10.8634  10.8712  10.8983  10.9773  11.0322
    11.0753  11.2154  11.3051  11.3740  11.6913  11.7837  12.0232  12.0403
    12.1603  12.2230  12.3647  12.5226  12.5541  12.8650  13.1702  14.0562
    14.1005  14.1080  14.5100  14.6814  14.7391  14.9418  15.0918  15.3676
    15.3920  15.4987  15.5610  15.6266  15.6412  15.6827  15.8496  15.9008
    16.0042  16.0110  16.0328

     occupation numbers 
     1.0000   1.0000   1.0000   1.0000   1.0000   1.0000   1.0000   1.0000
     1.0000   1.0000   1.0000   1.0000   1.0000   1.0000   1.0000   1.0000
     1.0000   1.0000   1.0000   1.0000   1.0000   1.0000   1.0000   1.0000
     1.0000   1.0000   1.0000   1.0000   1.0000   1.0000   1.0000   1.0000
     1.0000   1.0000   1.0000   1.0000   1.0000   1.0000   1.0000   1.0000
     1.0000   1.0000   1.0000   1.0000   1.0000   1.0000   1.0000   1.0000
     1.0000   1.0000   1.0000   1.0000   1.0000   1.0000   1.0000   1.0000
     1.0000   1.0000   1.0000   1.0000   1.0000   1.0000   1.0000   1.0000
     1.0000   1.0000   1.0000   1.0000   1.0000   1.0000   1.0000   1.0000
     1.0000   1.0000   1.0000   1.0000   1.0000   1.0000   1.0000   1.0000
     1.0000   1.0000   1.0000   1.0000   1.0000   1.0000   1.0000   1.0000
     1.0000   1.0000   1.0000   1.0000   1.0000   1.0049   1.0770   0.0018
     0.0008   0.0007   0.0000   0.0000   0.0000   0.0000   0.0000   0.0000
     0.0000   0.0000   0.0000   0.0000   0.0000   0.0000   0.0000   0.0000
     0.0000   0.0000   0.0000

          k = 0.0000-0.0619 0.1633 ( 14642 PWs)   bands (ev):

   -35.1768 -35.1513 -35.1409 -35.1271 -35.1175 -35.1055 -35.1040 -35.0982
   -35.0889 -35.0861 -35.0810 -35.0607 -13.4479 -13.4176 -13.4116 -13.4045
   -13.3884 -13.3682 -13.3611 -13.3576 -13.3426 -13.2971 -13.2921 -13.2832
   -13.2809 -13.2541 -13.2432 -13.2121 -13.1992 -13.1961 -13.1915 -13.1844
   -13.1806 -13.1659 -13.1609 -13.1411 -13.1381 -13.1324 -13.1201 -13.1169
   -13.1042 -13.0880 -13.0832 -13.0792 -13.0640 -13.0409 -13.0327 -13.0086
     2.2138   3.2325   3.4044   3.5601   4.0880   4.2280   6.1010   6.1600
     6.2453   6.3460   6.7248   7.5742   8.7809   8.7980   8.8912   9.1097
     9.1945   9.8418   9.8927   9.9201  10.0727  10.1707  10.2186  10.2646
    10.7765  10.8091  10.8343  10.8643  10.8951  10.9086  10.9769  11.0546
    11.1216  11.2464  11.3261  11.3862  11.7113  11.8081  12.0533  12.0757
    12.2263  12.2813  12.3890  12.5109  12.5431  12.7938  13.2016  14.0050
    14.1143  14.1285  14.3875  14.5939  14.7161  14.9152  15.1568  15.2148
    15.2407  15.3387  15.4089  15.6801  15.7011  15.7344  15.7638  15.8242
    15.9419  15.9690  16.1879

     occupation numbers 
     1.0000   1.0000   1.0000   1.0000   1.0000   1.0000   1.0000   1.0000
     1.0000   1.0000   1.0000   1.0000   1.0000   1.0000   1.0000   1.0000
     1.0000   1.0000   1.0000   1.0000   1.0000   1.0000   1.0000   1.0000
     1.0000   1.0000   1.0000   1.0000   1.0000   1.0000   1.0000   1.0000
     1.0000   1.0000   1.0000   1.0000   1.0000   1.0000   1.0000   1.0000
     1.0000   1.0000   1.0000   1.0000   1.0000   1.0000   1.0000   1.0000
     1.0000   1.0000   1.0000   1.0000   1.0000   1.0000   1.0000   1.0000
     1.0000   1.0000   1.0000   1.0000   1.0000   1.0000   1.0000   1.0000
     1.0000   1.0000   1.0000   1.0000   1.0000   1.0000   1.0000   1.0000
     1.0000   1.0000   1.0000   1.0000   1.0000   1.0000   1.0000   1.0000
     1.0000   1.0000   1.0000   1.0000   1.0000   1.0000   1.0000   1.0000
     1.0000   1.0000   1.0000   1.0000   1.0000   1.0017   1.0825   0.0044
     0.0006   0.0005   0.0000   0.0000   0.0000   0.0000   0.0000   0.0000
     0.0000   0.0000   0.0000   0.0000   0.0000   0.0000   0.0000   0.0000
     0.0000   0.0000   0.0000

          k = 0.0000-0.1238 0.3266 ( 14634 PWs)   bands (ev):

   -35.1754 -35.1502 -35.1411 -35.1266 -35.1167 -35.1058 -35.1036 -35.0985
   -35.0900 -35.0860 -35.0820 -35.0619 -13.4571 -13.4143 -13.4076 -13.3971
   -13.3884 -13.3814 -13.3749 -13.3609 -13.3581 -13.3026 -13.2907 -13.2841
   -13.2776 -13.2489 -13.2465 -13.2125 -13.2020 -13.1947 -13.1861 -13.1829
   -13.1755 -13.1696 -13.1624 -13.1394 -13.1349 -13.1300 -13.1151 -13.1112
   -13.1032 -13.0889 -13.0809 -13.0663 -13.0540 -13.0460 -13.0324 -13.0172
     2.2912   3.2636   3.4476   3.6008   4.0874   4.2283   6.1252   6.1994
     6.2798   6.3669   6.6276   7.7092   8.5160   8.5779   8.6739   9.0183
     9.0899   9.7728   9.8329  10.0113  10.0729  10.1884  10.3703  10.3976
    10.7447  10.7614  10.8209  10.8662  10.9004  10.9714  11.0040  11.1135
    11.2450  11.3225  11.4157  11.4662  11.7749  11.8781  12.1416  12.1690
    12.3788  12.3964  12.4380  12.4782  12.5188  12.6409  13.2976  13.8259
    14.1459  14.1850  14.2149  14.4529  14.6665  14.8429  14.9234  14.9540
    15.0712  15.0995  15.3849  15.3948  15.5808  15.7127  15.7695  15.8567
    15.9208  15.9606  16.1443

     occupation numbers 
     1.0000   1.0000   1.0000   1.0000   1.0000   1.0000   1.0000   1.0000
     1.0000   1.0000   1.0000   1.0000   1.0000   1.0000   1.0000   1.0000
     1.0000   1.0000   1.0000   1.0000   1.0000   1.0000   1.0000   1.0000
     1.0000   1.0000   1.0000   1.0000   1.0000   1.0000   1.0000   1.0000
     1.0000   1.0000   1.0000   1.0000   1.0000   1.0000   1.0000   1.0000
     1.0000   1.0000   1.0000   1.0000   1.0000   1.0000   1.0000   1.0000
     1.0000   1.0000   1.0000   1.0000   1.0000   1.0000   1.0000   1.0000
[...]
     1.0000   1.0000   1.0000   1.0000   1.0000   1.0000   1.0000   1.0000
     1.0000   1.0000   1.0000   1.0000   1.0000   1.0000   1.0000   1.0000
     1.0000   1.0000   1.0001   1.0002   1.0245   1.0821   1.0525   1.0297
     0.6403   0.0403   0.0099   0.0051   0.0000   0.0000   0.0000   0.0000
     0.0000   0.0000   0.0000   0.0000   0.0000   0.0000   0.0000   0.0000
     0.0000   0.0000   0.0000

          k = 0.3333-0.3406-0.9798 ( 14636 PWs)   bands (ev):

   -35.1663 -35.1440 -35.1428 -35.1185 -35.1146 -35.1053 -35.1028 -35.0987
   -35.0954 -35.0902 -35.0842 -35.0676 -13.4376 -13.4188 -13.4096 -13.4009
   -13.3910 -13.3709 -13.3653 -13.3575 -13.3490 -13.3343 -13.3163 -13.3054
   -13.2906 -13.2754 -13.2605 -13.2407 -13.2255 -13.2194 -13.2093 -13.1951
   -13.1530 -13.1470 -13.1398 -13.1328 -13.1227 -13.1171 -13.1111 -13.0980
   -13.0805 -13.0675 -13.0636 -13.0580 -13.0449 -13.0428 -13.0298 -13.0253
     2.9948   3.1539   3.3925   3.5478   4.6526   4.7325   5.5062   5.5483
     6.7698   6.8232   6.9139   7.0352   8.7481   8.8925   8.9313   8.9742
     9.2527   9.3299   9.4248   9.5315   9.6157   9.7236   9.9128  10.0074
    10.5794  10.6119  10.6726  10.7719  10.8605  10.9232  11.0130  11.0931
    11.3249  11.4670  11.5659  11.6972  12.0774  12.2001  12.2399  12.3362
    12.4236  12.5051  12.5534  12.5952  13.0052  13.1266  13.1868  13.2890
    13.8754  14.0361  14.0865  14.1790  14.2094  14.3199  14.6125  14.6321
    14.7487  14.7898  14.9681  15.0343  15.1011  15.2324  15.3165  15.4252
    15.5738  15.7465  15.8300

     occupation numbers 
     1.0000   1.0000   1.0000   1.0000   1.0000   1.0000   1.0000   1.0000
     1.0000   1.0000   1.0000   1.0000   1.0000   1.0000   1.0000   1.0000
     1.0000   1.0000   1.0000   1.0000   1.0000   1.0000   1.0000   1.0000
     1.0000   1.0000   1.0000   1.0000   1.0000   1.0000   1.0000   1.0000
     1.0000   1.0000   1.0000   1.0000   1.0000   1.0000   1.0000   1.0000
     1.0000   1.0000   1.0000   1.0000   1.0000   1.0000   1.0000   1.0000
     1.0000   1.0000   1.0000   1.0000   1.0000   1.0000   1.0000   1.0000
     1.0000   1.0000   1.0000   1.0000   1.0000   1.0000   1.0000   1.0000
     1.0000   1.0000   1.0000   1.0000   1.0000   1.0000   1.0000   1.0000
     1.0000   1.0000   1.0000   1.0000   1.0000   1.0000   1.0000   1.0000
     1.0000   1.0000   1.0000   1.0000   1.0000   1.0000   1.0000   1.0000
     1.0000   1.0000   1.0000   1.0000   1.0258   1.0643   1.0804   1.0630
     0.0294   0.0026   0.0011   0.0002   0.0001   0.0000   0.0000   0.0000
     0.0000   0.0000   0.0000   0.0000   0.0000   0.0000   0.0000   0.0000
     0.0000   0.0000   0.0000

          k = 0.3333-1.0831 0.9798 ( 14638 PWs)   bands (ev):

   -35.1663 -35.1436 -35.1432 -35.1179 -35.1155 -35.1053 -35.1026 -35.0987
   -35.0955 -35.0904 -35.0841 -35.0675 -13.4396 -13.4213 -13.4089 -13.3983
   -13.3848 -13.3742 -13.3606 -13.3564 -13.3516 -13.3389 -13.3220 -13.3012
   -13.2872 -13.2743 -13.2582 -13.2404 -13.2322 -13.2142 -13.2124 -13.1955
   -13.1525 -13.1481 -13.1412 -13.1317 -13.1248 -13.1181 -13.1078 -13.0968
   -13.0803 -13.0737 -13.0646 -13.0537 -13.0451 -13.0404 -13.0330 -13.0223
     3.0393   3.1225   3.4192   3.5152   4.6640   4.7173   5.4889   5.5642
     6.7017   6.8047   6.9287   7.0761   8.6986   8.7709   8.9606   9.1117
     9.2346   9.3233   9.4595   9.6566   9.6732   9.7919   9.8428   9.9070
    10.5339  10.6073  10.6888  10.7343  10.7823  10.9506  10.9943  11.1399
    11.2955  11.4118  11.6262  11.8174  12.0673  12.1448  12.2113  12.3312
    12.3784  12.4891  12.5952  12.7535  12.9184  13.1222  13.2432  13.3886
    13.7265  13.8665  14.1417  14.2018  14.2501  14.2989  14.5289  14.6535
    14.7723  14.8661  15.0332  15.0661  15.1621  15.2293  15.2907  15.4641
    15.4937  15.7204  15.8259

     occupation numbers 
     1.0000   1.0000   1.0000   1.0000   1.0000   1.0000   1.0000   1.0000
     1.0000   1.0000   1.0000   1.0000   1.0000   1.0000   1.0000   1.0000
     1.0000   1.0000   1.0000   1.0000   1.0000   1.0000   1.0000   1.0000
     1.0000   1.0000   1.0000   1.0000   1.0000   1.0000   1.0000   1.0000
     1.0000   1.0000   1.0000   1.0000   1.0000   1.0000   1.0000   1.0000
     1.0000   1.0000   1.0000   1.0000   1.0000   1.0000   1.0000   1.0000
     1.0000   1.0000   1.0000   1.0000   1.0000   1.0000   1.0000   1.0000
     1.0000   1.0000   1.0000   1.0000   1.0000   1.0000   1.0000   1.0000
     1.0000   1.0000   1.0000   1.0000   1.0000   1.0000   1.0000   1.0000
     1.0000   1.0000   1.0000   1.0000   1.0000   1.0000   1.0000   1.0000
     1.0000   1.0000   1.0000   1.0000   1.0000   1.0000   1.0000   1.0000
     1.0000   1.0000   1.0000   1.0009   1.0099   1.0628   1.0811   0.9418
     0.1538   0.0330   0.0004   0.0001   0.0000   0.0000   0.0000   0.0000
     0.0000   0.0000   0.0000   0.0000   0.0000   0.0000   0.0000   0.0000
     0.0000   0.0000   0.0000

          k = 0.3333-1.0212 0.8165 ( 14627 PWs)   bands (ev):

   -35.1674 -35.1442 -35.1427 -35.1195 -35.1158 -35.1054 -35.1027 -35.0991
   -35.0942 -35.0892 -35.0839 -35.0663 -13.4390 -13.4221 -13.4041 -13.3910
   -13.3772 -13.3731 -13.3618 -13.3565 -13.3447 -13.3405 -13.3237 -13.3010
   -13.2816 -13.2640 -13.2578 -13.2418 -13.2365 -13.2156 -13.2103 -13.1957
   -13.1598 -13.1565 -13.1449 -13.1321 -13.1284 -13.1178 -13.1083 -13.0964
   -13.0888 -13.0745 -13.0688 -13.0636 -13.0411 -13.0363 -13.0287 -13.0193
     3.0129   3.0954   3.3917   3.4928   4.5965   4.7305   5.4226   5.5809
     6.6749   6.7981   6.9526   7.1537   8.6758   8.7339   8.9939   9.1538
     9.1966   9.3230   9.6625   9.6988   9.7440   9.8088   9.8549   9.9389
    10.5622  10.6000  10.6499  10.7331  10.8046  10.8792  11.0129  11.1527
    11.2549  11.3627  11.6427  11.8444  11.9656  12.0857  12.1781  12.2610
    12.2955  12.5630  12.6906  12.8573  12.9153  13.1844  13.3666  13.4399
    13.5170  13.6577  14.0491  14.0826  14.1080  14.4241  14.5278  14.7270
    15.0010  15.0552  15.1044  15.2047  15.2536  15.3150  15.3748  15.5270
    15.6512  15.7152  15.8651

     occupation numbers 
     1.0000   1.0000   1.0000   1.0000   1.0000   1.0000   1.0000   1.0000
     1.0000   1.0000   1.0000   1.0000   1.0000   1.0000   1.0000   1.0000
     1.0000   1.0000   1.0000   1.0000   1.0000   1.0000   1.0000   1.0000
     1.0000   1.0000   1.0000   1.0000   1.0000   1.0000   1.0000   1.0000
     1.0000   1.0000   1.0000   1.0000   1.0000   1.0000   1.0000   1.0000
     1.0000   1.0000   1.0000   1.0000   1.0000   1.0000   1.0000   1.0000
     1.0000   1.0000   1.0000   1.0000   1.0000   1.0000   1.0000   1.0000
     1.0000   1.0000   1.0000   1.0000   1.0000   1.0000   1.0000   1.0000
     1.0000   1.0000   1.0000   1.0000   1.0000   1.0000   1.0000   1.0000
     1.0000   1.0000   1.0000   1.0000   1.0000   1.0000   1.0000   1.0000
     1.0000   1.0000   1.0000   1.0000   1.0000   1.0000   1.0000   1.0000
     1.0000   1.0000   1.0003   1.0044   1.0095   1.0800   0.9790   0.8336
     0.6325   0.2743   0.0021   0.0011   0.0007   0.0000   0.0000   0.0000
     0.0000   0.0000   0.0000   0.0000   0.0000   0.0000   0.0000   0.0000
     0.0000   0.0000   0.0000

          k = 0.3333-0.9593 0.6532 ( 14634 PWs)   bands (ev):

   -35.1693 -35.1453 -35.1421 -35.1216 -35.1173 -35.1055 -35.1024 -35.0989
   -35.0925 -35.0882 -35.0830 -35.0645 -13.4347 -13.4159 -13.3998 -13.3854
   -13.3771 -13.3679 -13.3595 -13.3504 -13.3431 -13.3323 -13.3207 -13.2933
   -13.2882 -13.2624 -13.2516 -13.2387 -13.2282 -13.2194 -13.2050 -13.1949
   -13.1777 -13.1721 -13.1448 -13.1387 -13.1339 -13.1238 -13.1128 -13.1008
   -13.0920 -13.0869 -13.0684 -13.0609 -13.0405 -13.0354 -13.0262 -13.0141
     2.9534   3.0562   3.3355   3.4549   4.5300   4.7036   5.3596   5.5563
     6.6975   6.8081   6.9816   7.2607   8.6985   8.7846   8.9326   9.0185
     9.2638   9.5252   9.6573   9.7077   9.8185   9.8998   9.9825  10.0246
    10.4652  10.6391  10.6998  10.7594  10.8243  10.9039  10.9933  11.1365
    11.2149  11.3589  11.5915  11.7008  11.8846  12.0949  12.1232  12.2160
    12.4430  12.5071  12.5941  12.7658  12.8367  13.1983  13.2701  13.3941
    13.7127  13.8599  13.9243  14.1170  14.2313  14.5209  14.6512  14.7747
    14.9286  15.1396  15.1908  15.2039  15.3000  15.3847  15.5397  15.6883
    15.8099  15.8928  16.0539

     occupation numbers 
     1.0000   1.0000   1.0000   1.0000   1.0000   1.0000   1.0000   1.0000
     1.0000   1.0000   1.0000   1.0000   1.0000   1.0000   1.0000   1.0000
     1.0000   1.0000   1.0000   1.0000   1.0000   1.0000   1.0000   1.0000
     1.0000   1.0000   1.0000   1.0000   1.0000   1.0000   1.0000   1.0000
     1.0000   1.0000   1.0000   1.0000   1.0000   1.0000   1.0000   1.0000
     1.0000   1.0000   1.0000   1.0000   1.0000   1.0000   1.0000   1.0000
     1.0000   1.0000   1.0000   1.0000   1.0000   1.0000   1.0000   1.0000
     1.0000   1.0000   1.0000   1.0000   1.0000   1.0000   1.0000   1.0000
     1.0000   1.0000   1.0000   1.0000   1.0000   1.0000   1.0000   1.0000
     1.0000   1.0000   1.0000   1.0000   1.0000   1.0000   1.0000   1.0000
     1.0000   1.0000   1.0000   1.0000   1.0000   1.0000   1.0000   1.0000
     1.0000   1.0000   1.0000   1.0011   1.0032   1.0821   1.0729   0.9316
     0.1745   0.0358   0.0151   0.0006   0.0001   0.0000   0.0000   0.0000
     0.0000   0.0000   0.0000   0.0000   0.0000   0.0000   0.0000   0.0000
     0.0000   0.0000   0.0000

          k = 0.3333-0.8975 0.4899 ( 14645 PWs)   bands (ev):

   -35.1713 -35.1465 -35.1416 -35.1237 -35.1192 -35.1059 -35.1021 -35.0978
   -35.0913 -35.0869 -35.0815 -35.0627 -13.4272 -13.4058 -13.3951 -13.3846
   -13.3720 -13.3669 -13.3531 -13.3435 -13.3372 -13.3254 -13.3170 -13.3053
   -13.2725 -13.2568 -13.2435 -13.2357 -13.2257 -13.2166 -13.2041 -13.1960
   -13.1905 -13.1842 -13.1612 -13.1465 -13.1382 -13.1326 -13.1184 -13.1101
   -13.1010 -13.0823 -13.0742 -13.0548 -13.0448 -13.0341 -13.0261 -13.0077
     2.9028   2.9922   3.2800   3.3888   4.4811   4.6421   5.3130   5.4984
     6.7643   6.8324   7.0085   7.3692   8.6978   8.7763   8.9351   9.0332
     9.4324   9.5730   9.6315   9.7325   9.8995  10.0252  10.0691  10.1144
    10.4002  10.5886  10.6927  10.7845  10.8973  10.9304  11.0243  11.1103
    11.1893  11.4275  11.4988  11.5479  11.8481  12.0795  12.1285  12.1952
    12.2533  12.5595  12.6207  12.6564  12.7307  13.1012  13.1689  13.3117
    13.7619  14.0769  14.1182  14.2175  14.5926  14.6962  14.7399  14.7855
    15.0556  15.1253  15.1593  15.2267  15.3484  15.4513  15.7163  15.8187
    15.8988  16.0856  16.1347

     occupation numbers 
     1.0000   1.0000   1.0000   1.0000   1.0000   1.0000   1.0000   1.0000
     1.0000   1.0000   1.0000   1.0000   1.0000   1.0000   1.0000   1.0000
     1.0000   1.0000   1.0000   1.0000   1.0000   1.0000   1.0000   1.0000
     1.0000   1.0000   1.0000   1.0000   1.0000   1.0000   1.0000   1.0000
     1.0000   1.0000   1.0000   1.0000   1.0000   1.0000   1.0000   1.0000
     1.0000   1.0000   1.0000   1.0000   1.0000   1.0000   1.0000   1.0000
     1.0000   1.0000   1.0000   1.0000   1.0000   1.0000   1.0000   1.0000
     1.0000   1.0000   1.0000   1.0000   1.0000   1.0000   1.0000   1.0000
     1.0000   1.0000   1.0000   1.0000   1.0000   1.0000   1.0000   1.0000
     1.0000   1.0000   1.0000   1.0000   1.0000   1.0000   1.0000   1.0000
     1.0000   1.0000   1.0000   1.0000   1.0000   1.0000   1.0000   1.0000
     1.0000   1.0000   1.0001   1.0001   1.0006   1.0556   1.0767   1.0459
     0.1092   0.0013   0.0006   0.0001   0.0000   0.0000   0.0000   0.0000
     0.0000   0.0000   0.0000   0.0000   0.0000   0.0000   0.0000   0.0000
     0.0000   0.0000   0.0000

          k = 0.3333-0.8356 0.3266 ( 14645 PWs)   bands (ev):

   -35.1730 -35.1477 -35.1413 -35.1256 -35.1208 -35.1064 -35.1018 -35.0966
   -35.0910 -35.0850 -35.0803 -35.0612 -13.4208 -13.3959 -13.3876 -13.3789
   -13.3716 -13.3591 -13.3495 -13.3405 -13.3326 -13.3265 -13.3128 -13.3053
   -13.2587 -13.2472 -13.2393 -13.2328 -13.2275 -13.2182 -13.2140 -13.1981
   -13.1928 -13.1894 -13.1679 -13.1556 -13.1496 -13.1394 -13.1284 -13.1131
   -13.0994 -13.0917 -13.0725 -13.0618 -13.0473 -13.0300 -13.0240 -13.0037
     2.8677   2.9217   3.2379   3.3148   4.4588   4.5636   5.2909   5.4245
     6.8448   6.8782   7.0262   7.4240   8.6122   8.8570   9.0340   9.1541
     9.4816   9.5511   9.6784   9.8020   9.9638  10.0443  10.0850  10.1102
    10.4243  10.6262  10.7738  10.7941  10.8249  10.9587  11.0451  11.1116
    11.1805  11.3961  11.4437  11.4956  11.8397  12.0046  12.0717  12.1398
    12.2396  12.3586  12.6396  12.6834  12.7777  12.9899  13.0908  13.3582
    13.6956  13.8816  14.2596  14.6143  14.7283  14.7711  14.9481  15.0296
    15.0778  15.1991  15.3016  15.3679  15.5032  15.5420  15.7070  15.9456
    16.0004  16.0767  16.1967

     occupation numbers 
     1.0000   1.0000   1.0000   1.0000   1.0000   1.0000   1.0000   1.0000
     1.0000   1.0000   1.0000   1.0000   1.0000   1.0000   1.0000   1.0000
     1.0000   1.0000   1.0000   1.0000   1.0000   1.0000   1.0000   1.0000
     1.0000   1.0000   1.0000   1.0000   1.0000   1.0000   1.0000   1.0000
     1.0000   1.0000   1.0000   1.0000   1.0000   1.0000   1.0000   1.0000
     1.0000   1.0000   1.0000   1.0000   1.0000   1.0000   1.0000   1.0000
     1.0000   1.0000   1.0000   1.0000   1.0000   1.0000   1.0000   1.0000
     1.0000   1.0000   1.0000   1.0000   1.0000   1.0000   1.0000   1.0000
     1.0000   1.0000   1.0000   1.0000   1.0000   1.0000   1.0000   1.0000
     1.0000   1.0000   1.0000   1.0000   1.0000   1.0000   1.0000   1.0000
     1.0000   1.0000   1.0000   1.0000   1.0000   1.0000   1.0000   1.0000
     1.0000   1.0000   1.0001   1.0002   1.0013   1.0222   1.0520   0.9917
     0.2024   0.0271   0.0000   0.0000   0.0000   0.0000   0.0000   0.0000
     0.0000   0.0000   0.0000   0.0000   0.0000   0.0000   0.0000   0.0000
     0.0000   0.0000   0.0000

          k = 0.3333-0.7737 0.1633 ( 14652 PWs)   bands (ev):

   -35.1742 -35.1486 -35.1411 -35.1268 -35.1218 -35.1067 -35.1014 -35.0959
   -35.0910 -35.0834 -35.0796 -35.0603 -13.4179 -13.3886 -13.3797 -13.3748
   -13.3677 -13.3530 -13.3482 -13.3388 -13.3309 -13.3262 -13.3107 -13.2999
   -13.2530 -13.2494 -13.2417 -13.2338 -13.2267 -13.2217 -13.2131 -13.2007
   -13.1911 -13.1842 -13.1741 -13.1697 -13.1501 -13.1419 -13.1311 -13.1214
   -13.1022 -13.0912 -13.0804 -13.0688 -13.0445 -13.0294 -13.0203 -13.0023
     2.8102   2.9020   3.1922   3.2826   4.4640   4.4908   5.2966   5.3533
     6.8774   6.9597   7.0509   7.3817   8.6866   8.9716   9.0504   9.3045
     9.3822   9.5512   9.7561   9.8601   9.9272  10.0198  10.0702  10.1116
    10.4204  10.6723  10.7914  10.8326  10.9067  11.0313  11.0447  11.1085
    11.1433  11.3429  11.3856  11.4271  11.8228  11.8761  12.0914  12.1303
    12.1955  12.2346  12.6508  12.7009  12.7705  12.9212  13.0784  13.4138
    13.6676  13.7316  14.3890  14.5954  14.7446  14.9117  15.0518  15.1351
    15.2437  15.3294  15.3987  15.5513  15.6313  15.7013  15.8983  15.9600
    15.9973  16.0713  16.2202

     occupation numbers 
     1.0000   1.0000   1.0000   1.0000   1.0000   1.0000   1.0000   1.0000
     1.0000   1.0000   1.0000   1.0000   1.0000   1.0000   1.0000   1.0000
     1.0000   1.0000   1.0000   1.0000   1.0000   1.0000   1.0000   1.0000
     1.0000   1.0000   1.0000   1.0000   1.0000   1.0000   1.0000   1.0000
     1.0000   1.0000   1.0000   1.0000   1.0000   1.0000   1.0000   1.0000
     1.0000   1.0000   1.0000   1.0000   1.0000   1.0000   1.0000   1.0000
     1.0000   1.0000   1.0000   1.0000   1.0000   1.0000   1.0000   1.0000
     1.0000   1.0000   1.0000   1.0000   1.0000   1.0000   1.0000   1.0000
     1.0000   1.0000   1.0000   1.0000   1.0000   1.0000   1.0000   1.0000
     1.0000   1.0000   1.0000   1.0000   1.0000   1.0000   1.0000   1.0000
     1.0000   1.0000   1.0000   1.0000   1.0000   1.0000   1.0000   1.0000
     1.0000   1.0000   1.0001   1.0003   1.0011   1.0102   1.0478   0.8922
     0.2542   0.1467   0.0000   0.0000   0.0000   0.0000   0.0000   0.0000
     0.0000   0.0000   0.0000   0.0000   0.0000   0.0000   0.0000   0.0000
     0.0000   0.0000   0.0000

     the Fermi energy is    13.6030 ev

!    total energy              =   -1328.48095636 Ry
     Harris-Foulkes estimate   =   -1328.48095622 Ry
     estimated scf accuracy    <       0.00000024 Ry

     The total energy is the sum of the following terms:

     one-electron contribution =    -198.61731809 Ry
     hartree contribution      =     186.12842531 Ry
     xc contribution           =    -289.11017834 Ry
     ewald contribution        =   -1026.88514288 Ry
     smearing contrib. (-TS)   =       0.00325764 Ry

     total magnetization       =     0.00 Bohr mag/cell
     absolute magnetization    =     0.01 Bohr mag/cell

     convergence has been achieved in  17 iterations

     Writing output data file aiida.save
 
     init_run     :     12.30s CPU     14.56s WALL (       1 calls)
     electrons    :    365.77s CPU    393.44s WALL (       1 calls)

     Called by init_run:
     wfcinit      :      6.49s CPU      7.23s WALL (       1 calls)
     wfcinit:atom :      0.01s CPU      0.05s WALL (      11 calls)
     wfcinit:wfcr :      6.16s CPU      6.67s WALL (      11 calls)
     potinit      :      1.18s CPU      1.65s WALL (       1 calls)

     Called by electrons:
     c_bands      :    307.04s CPU    332.15s WALL (      17 calls)
     sum_band     :     43.00s CPU     44.47s WALL (      17 calls)
     v_of_rho     :      4.51s CPU      4.73s WALL (      18 calls)
     v_h          :      0.12s CPU      0.15s WALL (      18 calls)
     v_xc         :      4.39s CPU      4.55s WALL (      18 calls)
     newd         :      9.56s CPU     10.18s WALL (      18 calls)
     mix_rho      :      0.49s CPU      0.63s WALL (      17 calls)

     Called by c_bands:
     init_us_2    :      1.17s CPU      1.19s WALL (     385 calls)
     cegterg      :    230.42s CPU    249.93s WALL (     187 calls)

     Called by sum_band:
     sum_band:bec :      0.18s CPU      0.19s WALL (     187 calls)
     addusdens    :     16.60s CPU     17.27s WALL (      17 calls)

     Called by *egterg:
     h_psi        :    112.88s CPU    116.06s WALL (     906 calls)
     s_psi        :      9.34s CPU      9.38s WALL (     906 calls)
     g_psi        :      0.30s CPU      0.31s WALL (     708 calls)
     cdiaghg      :     86.75s CPU     96.82s WALL (     895 calls)
     cegterg:over :      9.45s CPU      9.62s WALL (     708 calls)
     cegterg:upda :      8.67s CPU      8.85s WALL (     708 calls)
     cegterg:last :      2.71s CPU      2.76s WALL (     187 calls)
     cdiaghg:chol :      4.60s CPU      8.26s WALL (     895 calls)
     cdiaghg:inve :      0.93s CPU      1.54s WALL (     895 calls)
     cdiaghg:para :      4.80s CPU      5.79s WALL (    1790 calls)

     Called by h_psi:
     h_psi:pot    :    112.53s CPU    115.69s WALL (     906 calls)
     h_psi:calbec :      8.92s CPU      9.00s WALL (     906 calls)
     vloc_psi     :     93.97s CPU     96.98s WALL (     906 calls)
     add_vuspsi   :      9.61s CPU      9.67s WALL (     906 calls)

     General routines
     calbec       :     12.05s CPU     12.14s WALL (    1093 calls)
     fft          :      2.32s CPU      2.73s WALL (     548 calls)
     ffts         :      0.08s CPU      0.11s WALL (      70 calls)
     fftw         :     92.19s CPU     95.29s WALL (  134653 calls)
     interpolate  :      0.42s CPU      0.46s WALL (      70 calls)
     davcio       :      0.00s CPU      0.28s WALL (      11 calls)
 
     Parallel routines
     fft_scatter  :     35.97s CPU     37.44s WALL (  135271 calls)
 
     PWSCF        :  6m36.26s CPU     8m 3.04s WALL

 
   This run was terminated on:   9:36:20  21Apr2017            

=------------------------------------------------------------------------------=
   JOB DONE.
=------------------------------------------------------------------------------=
