
     Program PWSCF v.6.1 (svn rev. 13369) starts on 20Apr2017 at 16:44:53 

     This program is part of the open-source Quantum ESPRESSO suite
     for quantum simulation of materials; please cite
         "P. Giannozzi et al., J. Phys.:Condens. Matter 21 395502 (2009);
          URL http://www.quantum-espresso.org", 
     in publications or presentations arising from this work. More details at
     http://www.quantum-espresso.org/quote

     Parallel version (MPI), running on   256 processors
     K-points division:     npool     =     128
     R & G space division:  proc/nbgrp/npool/nimage =       2
     Reading input from pw.in

     Current dimensions of program PWSCF are:
     Max number of different atomic species (ntypx) = 10
     Max number of k-points (npk) =  40000
     Max angular momentum in pseudopotentials (lmaxx) =  3

     Subspace diagonalization in iterative solution of the eigenvalue problem:
     a serial algorithm will be used

 
     Parallelization info
     --------------------
     sticks:   dense  smooth     PW     G-vecs:    dense   smooth      PW
     Min        4369    2183    624               165556    58508    8898
     Max        4370    2184    625               165557    58509    8899
     Sum        8739    4367   1249               331113   117017   17797
 


     bravais-lattice index     =            0
     lattice parameter (alat)  =      21.3697  a.u.
     unit-cell volume          =    2870.2376 (a.u.)^3
     number of atoms/cell      =           24
     number of atomic types    =            2
     number of electrons       =       192.00
     number of Kohn-Sham states=          115
     kinetic-energy cutoff     =      45.0000  Ry
     charge density cutoff     =     360.0000  Ry
     convergence threshold     =      2.4E-07
     mixing beta               =       0.3500
     number of iterations used =            8  plain     mixing
     Exchange-correlation      = SLA  PW   PBE  PBE ( 1  4  3  4 0 0)

     celldm(1)=  21.369685  celldm(2)=   0.000000  celldm(3)=   0.000000
     celldm(4)=   0.000000  celldm(5)=   0.000000  celldm(6)=   0.000000

     crystal axes: (cart. coord. in units of alat)
               a(1) = (   1.000000   0.000000   0.000000 )  
               a(2) = (   0.000000   0.624362   0.236591 )  
               a(3) = (   0.000000   0.000000   0.471071 )  

     reciprocal axes: (cart. coord. in units 2 pi/alat)
               b(1) = (  1.000000  0.000000  0.000000 )  
               b(2) = (  0.000000  1.601634  0.000000 )  
               b(3) = (  0.000000 -0.804405  2.122821 )  


     PseudoPot. # 1 for Si read from file:
     ./pseudo/Si.pbe-n-rrkjus_psl.1.0.0.UPF
     MD5 check sum: d928fff27e2cf23ab01de9cd48acd62a
     Pseudo is Ultrasoft + core correction, Zval =  4.0
     Generated using "atomic" code by A. Dal Corso  v.5.1
     Using radial grid of 1141 points,  6 beta functions with: 
                l(1) =   0
                l(2) =   0
                l(3) =   1
                l(4) =   1
                l(5) =   2
                l(6) =   2
     Q(r) pseudized with 0 coefficients 


     PseudoPot. # 2 for Zr read from file:
     ./pseudo/Zr_pbe_v1.uspp.F.UPF
     MD5 check sum: 5db81b1e868ab7776c4564c113de050b
     Pseudo is Ultrasoft + core correction, Zval = 12.0
     Generated by new atomic code, or converted to UPF format
     Using radial grid of  887 points,  6 beta functions with: 
                l(1) =   0
                l(2) =   0
                l(3) =   1
                l(4) =   1
                l(5) =   2
                l(6) =   2
     Q(r) pseudized with  6 coefficients,  rinner =    1.200   1.200   1.200
                                                       1.200   1.200

     atomic species   valence    mass     pseudopotential
        Si             4.00    28.08550     Si( 1.00)
        Zr            12.00    91.22400     Zr( 1.00)

     Starting magnetic structure 
     atomic species   magnetization
        Si           0.000
        Zr           0.417

     No symmetry found


                                    s                        frac. trans.

      isym =  1     identity                                     

 cryst.   s( 1) = (     1          0          0      )
                  (     0          1          0      )
                  (     0          0          1      )

 cart.    s( 1) = (  1.0000000  0.0000000  0.0000000 )
                  (  0.0000000  1.0000000  0.0000000 )
                  (  0.0000000 -0.0000000  1.0000000 )


   Cartesian axes

     site n.     atom                  positions (alat units)
         1           Zr  tau(   1) = (   0.0849136   0.2617535   0.2332711  )
         2           Zr  tau(   2) = (   0.0826137   0.5816343   0.3496644  )
         3           Zr  tau(   3) = (   0.4177076   0.2652574   0.2447223  )
         4           Zr  tau(   4) = (   0.4195508   0.5854738   0.3567491  )
         5           Zr  tau(   5) = (   0.7490816   0.2714019   0.2432517  )
         6           Zr  tau(   6) = (   0.7531469   0.5845841   0.3592668  )
         7           Zr  tau(   7) = (   0.2456702   0.0436282   0.3461261  )
         8           Zr  tau(   8) = (   0.2541896   0.3521749   0.4677362  )
         9           Zr  tau(   9) = (   0.5872608   0.0433430   0.3459169  )
        10           Zr  tau(  10) = (   0.5763432   0.3565062   0.4693231  )
        11           Zr  tau(  11) = (   0.9223878   0.0494515   0.3509161  )
        12           Zr  tau(  12) = (   0.9187433   0.3618918   0.4749010  )
        13           Si  tau(  13) = (   0.2475696   0.1272710   0.1187276  )
        14           Si  tau(  14) = (   0.2501174   0.4481364   0.2364789  )
        15           Si  tau(  15) = (   0.5845975   0.1311824   0.1168144  )
        16           Si  tau(  16) = (   0.5880199   0.4482199   0.2391529  )
        17           Si  tau(  17) = (   0.9108569   0.1304446   0.1198963  )
        18           Si  tau(  18) = (   0.9144195   0.4371156   0.2413626  )
        19           Si  tau(  19) = (   0.0764592   0.1822462   0.4655981  )
        20           Si  tau(  20) = (   0.0886257   0.4908126   0.5881735  )
        21           Si  tau(  21) = (   0.4197308   0.1822714   0.4594581  )
        22           Si  tau(  22) = (   0.4125918   0.4976556   0.5869724  )
        23           Si  tau(  23) = (   0.7479428   0.1873324   0.4659956  )
        24           Si  tau(  24) = (   0.7441195   0.4928691   0.5799690  )

   Crystallographic axes

     site n.     atom                  positions (cryst. coord.)
         1           Zr  tau(   1) = (  0.0849136  0.4192332  0.2846370  )
         2           Zr  tau(   2) = (  0.0826137  0.9315652  0.2744055  )
         3           Zr  tau(   3) = (  0.4177076  0.4248452  0.3061272  )
         4           Zr  tau(   4) = (  0.4195508  0.9377145  0.2863564  )
         5           Zr  tau(   5) = (  0.7490816  0.4346864  0.2980629  )
         6           Zr  tau(   6) = (  0.7531469  0.9362897  0.2924167  )
         7           Zr  tau(   7) = (  0.2456702  0.0698764  0.6996688  )
         8           Zr  tau(   8) = (  0.2541896  0.5640551  0.7096290  )
         9           Zr  tau(   9) = (  0.5872608  0.0694196  0.6994543  )
        10           Zr  tau(  10) = (  0.5763432  0.5709923  0.7095134  )
        11           Zr  tau(  11) = (  0.9223878  0.0792032  0.7051529  )
        12           Zr  tau(  12) = (  0.9187433  0.5796181  0.7170221  )
        13           Si  tau(  13) = (  0.2475696  0.2038415  0.1496600  )
        14           Si  tau(  14) = (  0.2501174  0.7177503  0.1415194  )
        15           Si  tau(  15) = (  0.5845975  0.2101062  0.1424524  )
        16           Si  tau(  16) = (  0.5880199  0.7178842  0.1471284  )
        17           Si  tau(  17) = (  0.9108569  0.2089244  0.1495881  )
        18           Si  tau(  18) = (  0.9144195  0.7000990  0.1607518  )
        19           Si  tau(  19) = (  0.0764592  0.2918917  0.8417816  )
        20           Si  tau(  20) = (  0.0886257  0.7861020  0.8537748  )
        21           Si  tau(  21) = (  0.4197308  0.2919321  0.8287272  )
        22           Si  tau(  22) = (  0.4125918  0.7970621  0.8457206  )
        23           Si  tau(  23) = (  0.7479428  0.3000379  0.8385339  )
        24           Si  tau(  24) = (  0.7441195  0.7893958  0.8347040  )

     number of k points=   352  Marzari-Vanderbilt smearing, width (Ry)=  0.0200
                       cart. coord. in units 2pi/alat
        k(    1) = (   0.0000000   0.0000000   0.0000000), wk =   0.0014245
        k(    2) = (   0.0000000  -0.0618773   0.1632939), wk =   0.0028490
        k(    3) = (   0.0000000  -0.1237546   0.3265878), wk =   0.0028490
        k(    4) = (   0.0000000  -0.1856318   0.4898817), wk =   0.0028490
        k(    5) = (   0.0000000  -0.2475091   0.6531756), wk =   0.0028490
        k(    6) = (   0.0000000  -0.3093864   0.8164694), wk =   0.0028490
        k(    7) = (   0.0000000  -0.3712637   0.9797633), wk =   0.0028490
        k(    8) = (   0.0000000   0.1779593   0.0000000), wk =   0.0028490
        k(    9) = (   0.0000000   0.1160820   0.1632939), wk =   0.0028490
        k(   10) = (   0.0000000   0.0542047   0.3265878), wk =   0.0028490
        k(   11) = (   0.0000000  -0.0076725   0.4898817), wk =   0.0028490
        k(   12) = (   0.0000000  -0.0695498   0.6531756), wk =   0.0028490
        k(   13) = (   0.0000000  -0.1314271   0.8164694), wk =   0.0028490
        k(   14) = (   0.0000000  -0.1933044   0.9797633), wk =   0.0028490
        k(   15) = (   0.0000000   0.5492230  -0.9797633), wk =   0.0028490
        k(   16) = (   0.0000000   0.4873457  -0.8164694), wk =   0.0028490
        k(   17) = (   0.0000000   0.4254684  -0.6531756), wk =   0.0028490
        k(   18) = (   0.0000000   0.3635911  -0.4898817), wk =   0.0028490
        k(   19) = (   0.0000000   0.3017139  -0.3265878), wk =   0.0028490
        k(   20) = (   0.0000000   0.2398366  -0.1632939), wk =   0.0028490
        k(   21) = (   0.0000000   0.3559186   0.0000000), wk =   0.0028490
        k(   22) = (   0.0000000   0.2940413   0.1632939), wk =   0.0028490
        k(   23) = (   0.0000000   0.2321641   0.3265878), wk =   0.0028490
        k(   24) = (   0.0000000   0.1702868   0.4898817), wk =   0.0028490
        k(   25) = (   0.0000000   0.1084095   0.6531756), wk =   0.0028490
        k(   26) = (   0.0000000   0.0465322   0.8164694), wk =   0.0028490
        k(   27) = (   0.0000000  -0.0153451   0.9797633), wk =   0.0028490
        k(   28) = (   0.0000000   0.7271823  -0.9797633), wk =   0.0028490
        k(   29) = (   0.0000000   0.6653050  -0.8164694), wk =   0.0028490
        k(   30) = (   0.0000000   0.6034277  -0.6531756), wk =   0.0028490
        k(   31) = (   0.0000000   0.5415504  -0.4898817), wk =   0.0028490
        k(   32) = (   0.0000000   0.4796732  -0.3265878), wk =   0.0028490
        k(   33) = (   0.0000000   0.4177959  -0.1632939), wk =   0.0028490
        k(   34) = (   0.0000000   0.5338779   0.0000000), wk =   0.0028490
        k(   35) = (   0.0000000   0.4720006   0.1632939), wk =   0.0028490
        k(   36) = (   0.0000000   0.4101234   0.3265878), wk =   0.0028490
        k(   37) = (   0.0000000   0.3482461   0.4898817), wk =   0.0028490
        k(   38) = (   0.0000000   0.2863688   0.6531756), wk =   0.0028490
        k(   39) = (   0.0000000   0.2244915   0.8164694), wk =   0.0028490
        k(   40) = (   0.0000000   0.1626142   0.9797633), wk =   0.0028490
        k(   41) = (   0.0000000   0.9051416  -0.9797633), wk =   0.0028490
        k(   42) = (   0.0000000   0.8432643  -0.8164694), wk =   0.0028490
        k(   43) = (   0.0000000   0.7813870  -0.6531756), wk =   0.0028490
        k(   44) = (   0.0000000   0.7195097  -0.4898817), wk =   0.0028490
        k(   45) = (   0.0000000   0.6576325  -0.3265878), wk =   0.0028490
        k(   46) = (   0.0000000   0.5957552  -0.1632939), wk =   0.0028490
        k(   47) = (   0.0000000   0.7118372   0.0000000), wk =   0.0028490
        k(   48) = (   0.0000000   0.6499599   0.1632939), wk =   0.0028490
        k(   49) = (   0.0000000   0.5880827   0.3265878), wk =   0.0028490
        k(   50) = (   0.0000000   0.5262054   0.4898817), wk =   0.0028490
        k(   51) = (   0.0000000   0.4643281   0.6531756), wk =   0.0028490
        k(   52) = (   0.0000000   0.4024508   0.8164694), wk =   0.0028490
        k(   53) = (   0.0000000   0.3405735   0.9797633), wk =   0.0028490
        k(   54) = (   0.0000000   1.0831009  -0.9797633), wk =   0.0028490
        k(   55) = (   0.0000000   1.0212236  -0.8164694), wk =   0.0028490
        k(   56) = (   0.0000000   0.9593463  -0.6531756), wk =   0.0028490
        k(   57) = (   0.0000000   0.8974690  -0.4898817), wk =   0.0028490
        k(   58) = (   0.0000000   0.8355918  -0.3265878), wk =   0.0028490
        k(   59) = (   0.0000000   0.7737145  -0.1632939), wk =   0.0028490
        k(   60) = (   0.1666667   0.0000000   0.0000000), wk =   0.0028490
        k(   61) = (   0.1666667  -0.0618773   0.1632939), wk =   0.0028490
        k(   62) = (   0.1666667  -0.1237546   0.3265878), wk =   0.0028490
        k(   63) = (   0.1666667  -0.1856318   0.4898817), wk =   0.0028490
        k(   64) = (   0.1666667  -0.2475091   0.6531756), wk =   0.0028490
        k(   65) = (   0.1666667  -0.3093864   0.8164694), wk =   0.0028490
        k(   66) = (   0.1666667  -0.3712637   0.9797633), wk =   0.0028490
        k(   67) = (   0.1666667   0.1779593   0.0000000), wk =   0.0028490
        k(   68) = (   0.1666667   0.1160820   0.1632939), wk =   0.0028490
        k(   69) = (   0.1666667   0.0542047   0.3265878), wk =   0.0028490
        k(   70) = (   0.1666667  -0.0076725   0.4898817), wk =   0.0028490
        k(   71) = (   0.1666667  -0.0695498   0.6531756), wk =   0.0028490
        k(   72) = (   0.1666667  -0.1314271   0.8164694), wk =   0.0028490
        k(   73) = (   0.1666667  -0.1933044   0.9797633), wk =   0.0028490
        k(   74) = (   0.1666667   0.5492230  -0.9797633), wk =   0.0028490
        k(   75) = (   0.1666667   0.4873457  -0.8164694), wk =   0.0028490
        k(   76) = (   0.1666667   0.4254684  -0.6531756), wk =   0.0028490
        k(   77) = (   0.1666667   0.3635911  -0.4898817), wk =   0.0028490
        k(   78) = (   0.1666667   0.3017139  -0.3265878), wk =   0.0028490
        k(   79) = (   0.1666667   0.2398366  -0.1632939), wk =   0.0028490
        k(   80) = (   0.1666667   0.3559186   0.0000000), wk =   0.0028490
        k(   81) = (   0.1666667   0.2940413   0.1632939), wk =   0.0028490
        k(   82) = (   0.1666667   0.2321641   0.3265878), wk =   0.0028490
        k(   83) = (   0.1666667   0.1702868   0.4898817), wk =   0.0028490
        k(   84) = (   0.1666667   0.1084095   0.6531756), wk =   0.0028490
        k(   85) = (   0.1666667   0.0465322   0.8164694), wk =   0.0028490
        k(   86) = (   0.1666667  -0.0153451   0.9797633), wk =   0.0028490
        k(   87) = (   0.1666667   0.7271823  -0.9797633), wk =   0.0028490
        k(   88) = (   0.1666667   0.6653050  -0.8164694), wk =   0.0028490
        k(   89) = (   0.1666667   0.6034277  -0.6531756), wk =   0.0028490
        k(   90) = (   0.1666667   0.5415504  -0.4898817), wk =   0.0028490
        k(   91) = (   0.1666667   0.4796732  -0.3265878), wk =   0.0028490
        k(   92) = (   0.1666667   0.4177959  -0.1632939), wk =   0.0028490
        k(   93) = (   0.1666667   0.5338779   0.0000000), wk =   0.0028490
        k(   94) = (   0.1666667   0.4720006   0.1632939), wk =   0.0028490
        k(   95) = (   0.1666667   0.4101234   0.3265878), wk =   0.0028490
        k(   96) = (   0.1666667   0.3482461   0.4898817), wk =   0.0028490
        k(   97) = (   0.1666667   0.2863688   0.6531756), wk =   0.0028490
        k(   98) = (   0.1666667   0.2244915   0.8164694), wk =   0.0028490
        k(   99) = (   0.1666667   0.1626142   0.9797633), wk =   0.0028490
        k(  100) = (   0.1666667   0.9051416  -0.9797633), wk =   0.0028490
        k(  101) = (   0.1666667   0.8432643  -0.8164694), wk =   0.0028490
        k(  102) = (   0.1666667   0.7813870  -0.6531756), wk =   0.0028490
        k(  103) = (   0.1666667   0.7195097  -0.4898817), wk =   0.0028490
        k(  104) = (   0.1666667   0.6576325  -0.3265878), wk =   0.0028490
        k(  105) = (   0.1666667   0.5957552  -0.1632939), wk =   0.0028490
        k(  106) = (   0.1666667   0.7118372   0.0000000), wk =   0.0028490
        k(  107) = (   0.1666667   0.6499599   0.1632939), wk =   0.0028490
        k(  108) = (   0.1666667   0.5880827   0.3265878), wk =   0.0028490
        k(  109) = (   0.1666667   0.5262054   0.4898817), wk =   0.0028490
        k(  110) = (   0.1666667   0.4643281   0.6531756), wk =   0.0028490
        k(  111) = (   0.1666667   0.4024508   0.8164694), wk =   0.0028490
        k(  112) = (   0.1666667   0.3405735   0.9797633), wk =   0.0028490
        k(  113) = (   0.1666667   1.0831009  -0.9797633), wk =   0.0028490
        k(  114) = (   0.1666667   1.0212236  -0.8164694), wk =   0.0028490
        k(  115) = (   0.1666667   0.9593463  -0.6531756), wk =   0.0028490
        k(  116) = (   0.1666667   0.8974690  -0.4898817), wk =   0.0028490
        k(  117) = (   0.1666667   0.8355918  -0.3265878), wk =   0.0028490
        k(  118) = (   0.1666667   0.7737145  -0.1632939), wk =   0.0028490
        k(  119) = (   0.3333333   0.0000000   0.0000000), wk =   0.0028490
        k(  120) = (   0.3333333  -0.0618773   0.1632939), wk =   0.0028490
        k(  121) = (   0.3333333  -0.1237546   0.3265878), wk =   0.0028490
        k(  122) = (   0.3333333  -0.1856318   0.4898817), wk =   0.0028490
        k(  123) = (   0.3333333  -0.2475091   0.6531756), wk =   0.0028490
        k(  124) = (   0.3333333  -0.3093864   0.8164694), wk =   0.0028490
        k(  125) = (   0.3333333  -0.3712637   0.9797633), wk =   0.0028490
        k(  126) = (   0.3333333   0.1779593   0.0000000), wk =   0.0028490
        k(  127) = (   0.3333333   0.1160820   0.1632939), wk =   0.0028490
        k(  128) = (   0.3333333   0.0542047   0.3265878), wk =   0.0028490
        k(  129) = (   0.3333333  -0.0076725   0.4898817), wk =   0.0028490
        k(  130) = (   0.3333333  -0.0695498   0.6531756), wk =   0.0028490
        k(  131) = (   0.3333333  -0.1314271   0.8164694), wk =   0.0028490
        k(  132) = (   0.3333333  -0.1933044   0.9797633), wk =   0.0028490
        k(  133) = (   0.3333333   0.5492230  -0.9797633), wk =   0.0028490
        k(  134) = (   0.3333333   0.4873457  -0.8164694), wk =   0.0028490
        k(  135) = (   0.3333333   0.4254684  -0.6531756), wk =   0.0028490
        k(  136) = (   0.3333333   0.3635911  -0.4898817), wk =   0.0028490
        k(  137) = (   0.3333333   0.3017139  -0.3265878), wk =   0.0028490
        k(  138) = (   0.3333333   0.2398366  -0.1632939), wk =   0.0028490
        k(  139) = (   0.3333333   0.3559186   0.0000000), wk =   0.0028490
        k(  140) = (   0.3333333   0.2940413   0.1632939), wk =   0.0028490
        k(  141) = (   0.3333333   0.2321641   0.3265878), wk =   0.0028490
        k(  142) = (   0.3333333   0.1702868   0.4898817), wk =   0.0028490
        k(  143) = (   0.3333333   0.1084095   0.6531756), wk =   0.0028490
        k(  144) = (   0.3333333   0.0465322   0.8164694), wk =   0.0028490
        k(  145) = (   0.3333333  -0.0153451   0.9797633), wk =   0.0028490
        k(  146) = (   0.3333333   0.7271823  -0.9797633), wk =   0.0028490
        k(  147) = (   0.3333333   0.6653050  -0.8164694), wk =   0.0028490
        k(  148) = (   0.3333333   0.6034277  -0.6531756), wk =   0.0028490
        k(  149) = (   0.3333333   0.5415504  -0.4898817), wk =   0.0028490
        k(  150) = (   0.3333333   0.4796732  -0.3265878), wk =   0.0028490
        k(  151) = (   0.3333333   0.4177959  -0.1632939), wk =   0.0028490
        k(  152) = (   0.3333333   0.5338779   0.0000000), wk =   0.0028490
        k(  153) = (   0.3333333   0.4720006   0.1632939), wk =   0.0028490
        k(  154) = (   0.3333333   0.4101234   0.3265878), wk =   0.0028490
        k(  155) = (   0.3333333   0.3482461   0.4898817), wk =   0.0028490
        k(  156) = (   0.3333333   0.2863688   0.6531756), wk =   0.0028490
        k(  157) = (   0.3333333   0.2244915   0.8164694), wk =   0.0028490
        k(  158) = (   0.3333333   0.1626142   0.9797633), wk =   0.0028490
        k(  159) = (   0.3333333   0.9051416  -0.9797633), wk =   0.0028490
        k(  160) = (   0.3333333   0.8432643  -0.8164694), wk =   0.0028490
        k(  161) = (   0.3333333   0.7813870  -0.6531756), wk =   0.0028490
        k(  162) = (   0.3333333   0.7195097  -0.4898817), wk =   0.0028490
        k(  163) = (   0.3333333   0.6576325  -0.3265878), wk =   0.0028490
        k(  164) = (   0.3333333   0.5957552  -0.1632939), wk =   0.0028490
        k(  165) = (   0.3333333   0.7118372   0.0000000), wk =   0.0028490
        k(  166) = (   0.3333333   0.6499599   0.1632939), wk =   0.0028490
        k(  167) = (   0.3333333   0.5880827   0.3265878), wk =   0.0028490
        k(  168) = (   0.3333333   0.5262054   0.4898817), wk =   0.0028490
        k(  169) = (   0.3333333   0.4643281   0.6531756), wk =   0.0028490
        k(  170) = (   0.3333333   0.4024508   0.8164694), wk =   0.0028490
        k(  171) = (   0.3333333   0.3405735   0.9797633), wk =   0.0028490
        k(  172) = (   0.3333333   1.0831009  -0.9797633), wk =   0.0028490
        k(  173) = (   0.3333333   1.0212236  -0.8164694), wk =   0.0028490
        k(  174) = (   0.3333333   0.9593463  -0.6531756), wk =   0.0028490
        k(  175) = (   0.3333333   0.8974690  -0.4898817), wk =   0.0028490
        k(  176) = (   0.3333333   0.8355918  -0.3265878), wk =   0.0028490
        k(  177) = (   0.3333333   0.7737145  -0.1632939), wk =   0.0028490
        k(  178) = (  -0.5000000   0.0000000   0.0000000), wk =   0.0014245
        k(  179) = (  -0.5000000  -0.0618773   0.1632939), wk =   0.0028490
        k(  180) = (  -0.5000000  -0.1237546   0.3265878), wk =   0.0028490
        k(  181) = (  -0.5000000  -0.1856318   0.4898817), wk =   0.0028490
        k(  182) = (  -0.5000000  -0.2475091   0.6531756), wk =   0.0028490
        k(  183) = (  -0.5000000  -0.3093864   0.8164694), wk =   0.0028490
        k(  184) = (  -0.5000000  -0.3712637   0.9797633), wk =   0.0028490
        k(  185) = (  -0.5000000   0.1779593   0.0000000), wk =   0.0028490
        k(  186) = (  -0.5000000   0.1160820   0.1632939), wk =   0.0028490
        k(  187) = (  -0.5000000   0.0542047   0.3265878), wk =   0.0028490
        k(  188) = (  -0.5000000  -0.0076725   0.4898817), wk =   0.0028490
        k(  189) = (  -0.5000000  -0.0695498   0.6531756), wk =   0.0028490
        k(  190) = (  -0.5000000  -0.1314271   0.8164694), wk =   0.0028490
        k(  191) = (  -0.5000000  -0.1933044   0.9797633), wk =   0.0028490
        k(  192) = (  -0.5000000   0.5492230  -0.9797633), wk =   0.0028490
        k(  193) = (  -0.5000000   0.4873457  -0.8164694), wk =   0.0028490
        k(  194) = (  -0.5000000   0.4254684  -0.6531756), wk =   0.0028490
        k(  195) = (  -0.5000000   0.3635911  -0.4898817), wk =   0.0028490
        k(  196) = (  -0.5000000   0.3017139  -0.3265878), wk =   0.0028490
        k(  197) = (  -0.5000000   0.2398366  -0.1632939), wk =   0.0028490
        k(  198) = (  -0.5000000   0.3559186   0.0000000), wk =   0.0028490
        k(  199) = (  -0.5000000   0.2940413   0.1632939), wk =   0.0028490
        k(  200) = (  -0.5000000   0.2321641   0.3265878), wk =   0.0028490
        k(  201) = (  -0.5000000   0.1702868   0.4898817), wk =   0.0028490
        k(  202) = (  -0.5000000   0.1084095   0.6531756), wk =   0.0028490
        k(  203) = (  -0.5000000   0.0465322   0.8164694), wk =   0.0028490
        k(  204) = (  -0.5000000  -0.0153451   0.9797633), wk =   0.0028490
        k(  205) = (  -0.5000000   0.7271823  -0.9797633), wk =   0.0028490
        k(  206) = (  -0.5000000   0.6653050  -0.8164694), wk =   0.0028490
        k(  207) = (  -0.5000000   0.6034277  -0.6531756), wk =   0.0028490
        k(  208) = (  -0.5000000   0.5415504  -0.4898817), wk =   0.0028490
        k(  209) = (  -0.5000000   0.4796732  -0.3265878), wk =   0.0028490
        k(  210) = (  -0.5000000   0.4177959  -0.1632939), wk =   0.0028490
        k(  211) = (  -0.5000000   0.5338779   0.0000000), wk =   0.0028490
        k(  212) = (  -0.5000000   0.4720006   0.1632939), wk =   0.0028490
        k(  213) = (  -0.5000000   0.4101234   0.3265878), wk =   0.0028490
        k(  214) = (  -0.5000000   0.3482461   0.4898817), wk =   0.0028490
        k(  215) = (  -0.5000000   0.2863688   0.6531756), wk =   0.0028490
        k(  216) = (  -0.5000000   0.2244915   0.8164694), wk =   0.0028490
        k(  217) = (  -0.5000000   0.1626142   0.9797633), wk =   0.0028490
        k(  218) = (  -0.5000000   0.9051416  -0.9797633), wk =   0.0028490
        k(  219) = (  -0.5000000   0.8432643  -0.8164694), wk =   0.0028490
        k(  220) = (  -0.5000000   0.7813870  -0.6531756), wk =   0.0028490
        k(  221) = (  -0.5000000   0.7195097  -0.4898817), wk =   0.0028490
        k(  222) = (  -0.5000000   0.6576325  -0.3265878), wk =   0.0028490
        k(  223) = (  -0.5000000   0.5957552  -0.1632939), wk =   0.0028490
        k(  224) = (  -0.5000000   0.7118372   0.0000000), wk =   0.0028490
        k(  225) = (  -0.5000000   0.6499599   0.1632939), wk =   0.0028490
        k(  226) = (  -0.5000000   0.5880827   0.3265878), wk =   0.0028490
        k(  227) = (  -0.5000000   0.5262054   0.4898817), wk =   0.0028490
        k(  228) = (  -0.5000000   0.4643281   0.6531756), wk =   0.0028490
        k(  229) = (  -0.5000000   0.4024508   0.8164694), wk =   0.0028490
        k(  230) = (  -0.5000000   0.3405735   0.9797633), wk =   0.0028490
        k(  231) = (  -0.5000000   1.0831009  -0.9797633), wk =   0.0028490
        k(  232) = (  -0.5000000   1.0212236  -0.8164694), wk =   0.0028490
        k(  233) = (  -0.5000000   0.9593463  -0.6531756), wk =   0.0028490
        k(  234) = (  -0.5000000   0.8974690  -0.4898817), wk =   0.0028490
        k(  235) = (  -0.5000000   0.8355918  -0.3265878), wk =   0.0028490
        k(  236) = (  -0.5000000   0.7737145  -0.1632939), wk =   0.0028490
        k(  237) = (   0.1666667   0.0618773  -0.1632939), wk =   0.0028490
        k(  238) = (   0.1666667   0.1237546  -0.3265878), wk =   0.0028490
        k(  239) = (   0.1666667   0.1856318  -0.4898817), wk =   0.0028490
        k(  240) = (   0.1666667   0.2475091  -0.6531756), wk =   0.0028490
        k(  241) = (   0.1666667   0.3093864  -0.8164694), wk =   0.0028490
        k(  242) = (   0.1666667   0.3712637  -0.9797633), wk =   0.0028490
        k(  243) = (   0.1666667  -0.1779593   0.0000000), wk =   0.0028490
        k(  244) = (   0.1666667  -0.1160820  -0.1632939), wk =   0.0028490
        k(  245) = (   0.1666667  -0.0542047  -0.3265878), wk =   0.0028490
        k(  246) = (   0.1666667   0.0076725  -0.4898817), wk =   0.0028490
        k(  247) = (   0.1666667   0.0695498  -0.6531756), wk =   0.0028490
        k(  248) = (   0.1666667   0.1314271  -0.8164694), wk =   0.0028490
        k(  249) = (   0.1666667   0.1933044  -0.9797633), wk =   0.0028490
        k(  250) = (   0.1666667  -0.5492230   0.9797633), wk =   0.0028490
        k(  251) = (   0.1666667  -0.4873457   0.8164694), wk =   0.0028490
        k(  252) = (   0.1666667  -0.4254684   0.6531756), wk =   0.0028490
        k(  253) = (   0.1666667  -0.3635911   0.4898817), wk =   0.0028490
        k(  254) = (   0.1666667  -0.3017139   0.3265878), wk =   0.0028490
        k(  255) = (   0.1666667  -0.2398366   0.1632939), wk =   0.0028490
        k(  256) = (   0.1666667  -0.3559186   0.0000000), wk =   0.0028490
        k(  257) = (   0.1666667  -0.2940413  -0.1632939), wk =   0.0028490
        k(  258) = (   0.1666667  -0.2321641  -0.3265878), wk =   0.0028490
        k(  259) = (   0.1666667  -0.1702868  -0.4898817), wk =   0.0028490
        k(  260) = (   0.1666667  -0.1084095  -0.6531756), wk =   0.0028490
        k(  261) = (   0.1666667  -0.0465322  -0.8164694), wk =   0.0028490
        k(  262) = (   0.1666667   0.0153451  -0.9797633), wk =   0.0028490
        k(  263) = (   0.1666667  -0.7271823   0.9797633), wk =   0.0028490
        k(  264) = (   0.1666667  -0.6653050   0.8164694), wk =   0.0028490
        k(  265) = (   0.1666667  -0.6034277   0.6531756), wk =   0.0028490
        k(  266) = (   0.1666667  -0.5415504   0.4898817), wk =   0.0028490
        k(  267) = (   0.1666667  -0.4796732   0.3265878), wk =   0.0028490
        k(  268) = (   0.1666667  -0.4177959   0.1632939), wk =   0.0028490
        k(  269) = (   0.1666667  -0.5338779   0.0000000), wk =   0.0028490
        k(  270) = (   0.1666667  -0.4720006  -0.1632939), wk =   0.0028490
        k(  271) = (   0.1666667  -0.4101234  -0.3265878), wk =   0.0028490
        k(  272) = (   0.1666667  -0.3482461  -0.4898817), wk =   0.0028490
        k(  273) = (   0.1666667  -0.2863688  -0.6531756), wk =   0.0028490
        k(  274) = (   0.1666667  -0.2244915  -0.8164694), wk =   0.0028490
        k(  275) = (   0.1666667  -0.1626142  -0.9797633), wk =   0.0028490
        k(  276) = (   0.1666667  -0.9051416   0.9797633), wk =   0.0028490
        k(  277) = (   0.1666667  -0.8432643   0.8164694), wk =   0.0028490
        k(  278) = (   0.1666667  -0.7813870   0.6531756), wk =   0.0028490
        k(  279) = (   0.1666667  -0.7195097   0.4898817), wk =   0.0028490
        k(  280) = (   0.1666667  -0.6576325   0.3265878), wk =   0.0028490
        k(  281) = (   0.1666667  -0.5957552   0.1632939), wk =   0.0028490
        k(  282) = (   0.1666667  -0.7118372   0.0000000), wk =   0.0028490
        k(  283) = (   0.1666667  -0.6499599  -0.1632939), wk =   0.0028490
        k(  284) = (   0.1666667  -0.5880827  -0.3265878), wk =   0.0028490
        k(  285) = (   0.1666667  -0.5262054  -0.4898817), wk =   0.0028490
        k(  286) = (   0.1666667  -0.4643281  -0.6531756), wk =   0.0028490
        k(  287) = (   0.1666667  -0.4024508  -0.8164694), wk =   0.0028490
        k(  288) = (   0.1666667  -0.3405735  -0.9797633), wk =   0.0028490
        k(  289) = (   0.1666667  -1.0831009   0.9797633), wk =   0.0028490
        k(  290) = (   0.1666667  -1.0212236   0.8164694), wk =   0.0028490
        k(  291) = (   0.1666667  -0.9593463   0.6531756), wk =   0.0028490
        k(  292) = (   0.1666667  -0.8974690   0.4898817), wk =   0.0028490
        k(  293) = (   0.1666667  -0.8355918   0.3265878), wk =   0.0028490
        k(  294) = (   0.1666667  -0.7737145   0.1632939), wk =   0.0028490
        k(  295) = (   0.3333333   0.0618773  -0.1632939), wk =   0.0028490
        k(  296) = (   0.3333333   0.1237546  -0.3265878), wk =   0.0028490
        k(  297) = (   0.3333333   0.1856318  -0.4898817), wk =   0.0028490
        k(  298) = (   0.3333333   0.2475091  -0.6531756), wk =   0.0028490
        k(  299) = (   0.3333333   0.3093864  -0.8164694), wk =   0.0028490
        k(  300) = (   0.3333333   0.3712637  -0.9797633), wk =   0.0028490
        k(  301) = (   0.3333333  -0.1779593   0.0000000), wk =   0.0028490
        k(  302) = (   0.3333333  -0.1160820  -0.1632939), wk =   0.0028490
        k(  303) = (   0.3333333  -0.0542047  -0.3265878), wk =   0.0028490
        k(  304) = (   0.3333333   0.0076725  -0.4898817), wk =   0.0028490
        k(  305) = (   0.3333333   0.0695498  -0.6531756), wk =   0.0028490
        k(  306) = (   0.3333333   0.1314271  -0.8164694), wk =   0.0028490
        k(  307) = (   0.3333333   0.1933044  -0.9797633), wk =   0.0028490
        k(  308) = (   0.3333333  -0.5492230   0.9797633), wk =   0.0028490
        k(  309) = (   0.3333333  -0.4873457   0.8164694), wk =   0.0028490
        k(  310) = (   0.3333333  -0.4254684   0.6531756), wk =   0.0028490
        k(  311) = (   0.3333333  -0.3635911   0.4898817), wk =   0.0028490
        k(  312) = (   0.3333333  -0.3017139   0.3265878), wk =   0.0028490
        k(  313) = (   0.3333333  -0.2398366   0.1632939), wk =   0.0028490
        k(  314) = (   0.3333333  -0.3559186   0.0000000), wk =   0.0028490
        k(  315) = (   0.3333333  -0.2940413  -0.1632939), wk =   0.0028490
        k(  316) = (   0.3333333  -0.2321641  -0.3265878), wk =   0.0028490
        k(  317) = (   0.3333333  -0.1702868  -0.4898817), wk =   0.0028490
        k(  318) = (   0.3333333  -0.1084095  -0.6531756), wk =   0.0028490
        k(  319) = (   0.3333333  -0.0465322  -0.8164694), wk =   0.0028490
        k(  320) = (   0.3333333   0.0153451  -0.9797633), wk =   0.0028490
        k(  321) = (   0.3333333  -0.7271823   0.9797633), wk =   0.0028490
        k(  322) = (   0.3333333  -0.6653050   0.8164694), wk =   0.0028490
        k(  323) = (   0.3333333  -0.6034277   0.6531756), wk =   0.0028490
        k(  324) = (   0.3333333  -0.5415504   0.4898817), wk =   0.0028490
        k(  325) = (   0.3333333  -0.4796732   0.3265878), wk =   0.0028490
        k(  326) = (   0.3333333  -0.4177959   0.1632939), wk =   0.0028490
        k(  327) = (   0.3333333  -0.5338779   0.0000000), wk =   0.0028490
        k(  328) = (   0.3333333  -0.4720006  -0.1632939), wk =   0.0028490
        k(  329) = (   0.3333333  -0.4101234  -0.3265878), wk =   0.0028490
        k(  330) = (   0.3333333  -0.3482461  -0.4898817), wk =   0.0028490
        k(  331) = (   0.3333333  -0.2863688  -0.6531756), wk =   0.0028490
        k(  332) = (   0.3333333  -0.2244915  -0.8164694), wk =   0.0028490
        k(  333) = (   0.3333333  -0.1626142  -0.9797633), wk =   0.0028490
        k(  334) = (   0.3333333  -0.9051416   0.9797633), wk =   0.0028490
        k(  335) = (   0.3333333  -0.8432643   0.8164694), wk =   0.0028490
        k(  336) = (   0.3333333  -0.7813870   0.6531756), wk =   0.0028490
        k(  337) = (   0.3333333  -0.7195097   0.4898817), wk =   0.0028490
        k(  338) = (   0.3333333  -0.6576325   0.3265878), wk =   0.0028490
        k(  339) = (   0.3333333  -0.5957552   0.1632939), wk =   0.0028490
        k(  340) = (   0.3333333  -0.7118372   0.0000000), wk =   0.0028490
        k(  341) = (   0.3333333  -0.6499599  -0.1632939), wk =   0.0028490
        k(  342) = (   0.3333333  -0.5880827  -0.3265878), wk =   0.0028490
        k(  343) = (   0.3333333  -0.5262054  -0.4898817), wk =   0.0028490
        k(  344) = (   0.3333333  -0.4643281  -0.6531756), wk =   0.0028490
        k(  345) = (   0.3333333  -0.4024508  -0.8164694), wk =   0.0028490
        k(  346) = (   0.3333333  -0.3405735  -0.9797633), wk =   0.0028490
        k(  347) = (   0.3333333  -1.0831009   0.9797633), wk =   0.0028490
        k(  348) = (   0.3333333  -1.0212236   0.8164694), wk =   0.0028490
        k(  349) = (   0.3333333  -0.9593463   0.6531756), wk =   0.0028490
        k(  350) = (   0.3333333  -0.8974690   0.4898817), wk =   0.0028490
        k(  351) = (   0.3333333  -0.8355918   0.3265878), wk =   0.0028490
        k(  352) = (   0.3333333  -0.7737145   0.1632939), wk =   0.0028490

                       cryst. coord.
        k(    1) = (   0.0000000   0.0000000   0.0000000), wk =   0.0014245
        k(    2) = (   0.0000000   0.0000000   0.0769231), wk =   0.0028490
        k(    3) = (   0.0000000   0.0000000   0.1538462), wk =   0.0028490
        k(    4) = (   0.0000000   0.0000000   0.2307692), wk =   0.0028490
        k(    5) = (   0.0000000   0.0000000   0.3076923), wk =   0.0028490
        k(    6) = (   0.0000000   0.0000000   0.3846154), wk =   0.0028490
        k(    7) = (   0.0000000   0.0000000   0.4615385), wk =   0.0028490
        k(    8) = (   0.0000000   0.1111111   0.0000000), wk =   0.0028490
        k(    9) = (   0.0000000   0.1111111   0.0769231), wk =   0.0028490
        k(   10) = (   0.0000000   0.1111111   0.1538462), wk =   0.0028490
        k(   11) = (   0.0000000   0.1111111   0.2307692), wk =   0.0028490
        k(   12) = (   0.0000000   0.1111111   0.3076923), wk =   0.0028490
        k(   13) = (   0.0000000   0.1111111   0.3846154), wk =   0.0028490
        k(   14) = (   0.0000000   0.1111111   0.4615385), wk =   0.0028490
        k(   15) = (   0.0000000   0.1111111  -0.4615385), wk =   0.0028490
        k(   16) = (   0.0000000   0.1111111  -0.3846154), wk =   0.0028490
        k(   17) = (   0.0000000   0.1111111  -0.3076923), wk =   0.0028490
        k(   18) = (   0.0000000   0.1111111  -0.2307692), wk =   0.0028490
        k(   19) = (   0.0000000   0.1111111  -0.1538462), wk =   0.0028490
        k(   20) = (   0.0000000   0.1111111  -0.0769231), wk =   0.0028490
        k(   21) = (   0.0000000   0.2222222   0.0000000), wk =   0.0028490
        k(   22) = (   0.0000000   0.2222222   0.0769231), wk =   0.0028490
        k(   23) = (   0.0000000   0.2222222   0.1538462), wk =   0.0028490
        k(   24) = (   0.0000000   0.2222222   0.2307692), wk =   0.0028490
        k(   25) = (   0.0000000   0.2222222   0.3076923), wk =   0.0028490
        k(   26) = (   0.0000000   0.2222222   0.3846154), wk =   0.0028490
        k(   27) = (   0.0000000   0.2222222   0.4615385), wk =   0.0028490
        k(   28) = (   0.0000000   0.2222222  -0.4615385), wk =   0.0028490
        k(   29) = (   0.0000000   0.2222222  -0.3846154), wk =   0.0028490
        k(   30) = (   0.0000000   0.2222222  -0.3076923), wk =   0.0028490
        k(   31) = (   0.0000000   0.2222222  -0.2307692), wk =   0.0028490
        k(   32) = (   0.0000000   0.2222222  -0.1538462), wk =   0.0028490
        k(   33) = (   0.0000000   0.2222222  -0.0769231), wk =   0.0028490
        k(   34) = (   0.0000000   0.3333333   0.0000000), wk =   0.0028490
        k(   35) = (   0.0000000   0.3333333   0.0769231), wk =   0.0028490
        k(   36) = (   0.0000000   0.3333333   0.1538462), wk =   0.0028490
        k(   37) = (   0.0000000   0.3333333   0.2307692), wk =   0.0028490
        k(   38) = (   0.0000000   0.3333333   0.3076923), wk =   0.0028490
        k(   39) = (   0.0000000   0.3333333   0.3846154), wk =   0.0028490
        k(   40) = (   0.0000000   0.3333333   0.4615385), wk =   0.0028490
        k(   41) = (   0.0000000   0.3333333  -0.4615385), wk =   0.0028490
        k(   42) = (   0.0000000   0.3333333  -0.3846154), wk =   0.0028490
        k(   43) = (   0.0000000   0.3333333  -0.3076923), wk =   0.0028490
        k(   44) = (   0.0000000   0.3333333  -0.2307692), wk =   0.0028490
        k(   45) = (   0.0000000   0.3333333  -0.1538462), wk =   0.0028490
        k(   46) = (   0.0000000   0.3333333  -0.0769231), wk =   0.0028490
        k(   47) = (   0.0000000   0.4444444   0.0000000), wk =   0.0028490
        k(   48) = (   0.0000000   0.4444444   0.0769231), wk =   0.0028490
        k(   49) = (   0.0000000   0.4444444   0.1538462), wk =   0.0028490
        k(   50) = (   0.0000000   0.4444444   0.2307692), wk =   0.0028490
        k(   51) = (   0.0000000   0.4444444   0.3076923), wk =   0.0028490
        k(   52) = (   0.0000000   0.4444444   0.3846154), wk =   0.0028490
        k(   53) = (   0.0000000   0.4444444   0.4615385), wk =   0.0028490
        k(   54) = (   0.0000000   0.4444444  -0.4615385), wk =   0.0028490
        k(   55) = (   0.0000000   0.4444444  -0.3846154), wk =   0.0028490
        k(   56) = (   0.0000000   0.4444444  -0.3076923), wk =   0.0028490
        k(   57) = (   0.0000000   0.4444444  -0.2307692), wk =   0.0028490
        k(   58) = (   0.0000000   0.4444444  -0.1538462), wk =   0.0028490
        k(   59) = (   0.0000000   0.4444444  -0.0769231), wk =   0.0028490
        k(   60) = (   0.1666667   0.0000000   0.0000000), wk =   0.0028490
        k(   61) = (   0.1666667   0.0000000   0.0769231), wk =   0.0028490
        k(   62) = (   0.1666667   0.0000000   0.1538462), wk =   0.0028490
        k(   63) = (   0.1666667   0.0000000   0.2307692), wk =   0.0028490
        k(   64) = (   0.1666667   0.0000000   0.3076923), wk =   0.0028490
        k(   65) = (   0.1666667   0.0000000   0.3846154), wk =   0.0028490
        k(   66) = (   0.1666667   0.0000000   0.4615385), wk =   0.0028490
        k(   67) = (   0.1666667   0.1111111   0.0000000), wk =   0.0028490
        k(   68) = (   0.1666667   0.1111111   0.0769231), wk =   0.0028490
        k(   69) = (   0.1666667   0.1111111   0.1538462), wk =   0.0028490
        k(   70) = (   0.1666667   0.1111111   0.2307692), wk =   0.0028490
        k(   71) = (   0.1666667   0.1111111   0.3076923), wk =   0.0028490
        k(   72) = (   0.1666667   0.1111111   0.3846154), wk =   0.0028490
        k(   73) = (   0.1666667   0.1111111   0.4615385), wk =   0.0028490
        k(   74) = (   0.1666667   0.1111111  -0.4615385), wk =   0.0028490
        k(   75) = (   0.1666667   0.1111111  -0.3846154), wk =   0.0028490
        k(   76) = (   0.1666667   0.1111111  -0.3076923), wk =   0.0028490
        k(   77) = (   0.1666667   0.1111111  -0.2307692), wk =   0.0028490
        k(   78) = (   0.1666667   0.1111111  -0.1538462), wk =   0.0028490
        k(   79) = (   0.1666667   0.1111111  -0.0769231), wk =   0.0028490
        k(   80) = (   0.1666667   0.2222222   0.0000000), wk =   0.0028490
        k(   81) = (   0.1666667   0.2222222   0.0769231), wk =   0.0028490
        k(   82) = (   0.1666667   0.2222222   0.1538462), wk =   0.0028490
        k(   83) = (   0.1666667   0.2222222   0.2307692), wk =   0.0028490
        k(   84) = (   0.1666667   0.2222222   0.3076923), wk =   0.0028490
        k(   85) = (   0.1666667   0.2222222   0.3846154), wk =   0.0028490
        k(   86) = (   0.1666667   0.2222222   0.4615385), wk =   0.0028490
        k(   87) = (   0.1666667   0.2222222  -0.4615385), wk =   0.0028490
        k(   88) = (   0.1666667   0.2222222  -0.3846154), wk =   0.0028490
        k(   89) = (   0.1666667   0.2222222  -0.3076923), wk =   0.0028490
        k(   90) = (   0.1666667   0.2222222  -0.2307692), wk =   0.0028490
        k(   91) = (   0.1666667   0.2222222  -0.1538462), wk =   0.0028490
        k(   92) = (   0.1666667   0.2222222  -0.0769231), wk =   0.0028490
        k(   93) = (   0.1666667   0.3333333   0.0000000), wk =   0.0028490
        k(   94) = (   0.1666667   0.3333333   0.0769231), wk =   0.0028490
        k(   95) = (   0.1666667   0.3333333   0.1538462), wk =   0.0028490
        k(   96) = (   0.1666667   0.3333333   0.2307692), wk =   0.0028490
        k(   97) = (   0.1666667   0.3333333   0.3076923), wk =   0.0028490
        k(   98) = (   0.1666667   0.3333333   0.3846154), wk =   0.0028490
        k(   99) = (   0.1666667   0.3333333   0.4615385), wk =   0.0028490
        k(  100) = (   0.1666667   0.3333333  -0.4615385), wk =   0.0028490
        k(  101) = (   0.1666667   0.3333333  -0.3846154), wk =   0.0028490
        k(  102) = (   0.1666667   0.3333333  -0.3076923), wk =   0.0028490
        k(  103) = (   0.1666667   0.3333333  -0.2307692), wk =   0.0028490
        k(  104) = (   0.1666667   0.3333333  -0.1538462), wk =   0.0028490
        k(  105) = (   0.1666667   0.3333333  -0.0769231), wk =   0.0028490
        k(  106) = (   0.1666667   0.4444444   0.0000000), wk =   0.0028490
        k(  107) = (   0.1666667   0.4444444   0.0769231), wk =   0.0028490
        k(  108) = (   0.1666667   0.4444444   0.1538462), wk =   0.0028490
        k(  109) = (   0.1666667   0.4444444   0.2307692), wk =   0.0028490
        k(  110) = (   0.1666667   0.4444444   0.3076923), wk =   0.0028490
        k(  111) = (   0.1666667   0.4444444   0.3846154), wk =   0.0028490
        k(  112) = (   0.1666667   0.4444444   0.4615385), wk =   0.0028490
        k(  113) = (   0.1666667   0.4444444  -0.4615385), wk =   0.0028490
        k(  114) = (   0.1666667   0.4444444  -0.3846154), wk =   0.0028490
        k(  115) = (   0.1666667   0.4444444  -0.3076923), wk =   0.0028490
        k(  116) = (   0.1666667   0.4444444  -0.2307692), wk =   0.0028490
        k(  117) = (   0.1666667   0.4444444  -0.1538462), wk =   0.0028490
        k(  118) = (   0.1666667   0.4444444  -0.0769231), wk =   0.0028490
        k(  119) = (   0.3333333   0.0000000   0.0000000), wk =   0.0028490
        k(  120) = (   0.3333333   0.0000000   0.0769231), wk =   0.0028490
        k(  121) = (   0.3333333   0.0000000   0.1538462), wk =   0.0028490
        k(  122) = (   0.3333333   0.0000000   0.2307692), wk =   0.0028490
        k(  123) = (   0.3333333   0.0000000   0.3076923), wk =   0.0028490
        k(  124) = (   0.3333333   0.0000000   0.3846154), wk =   0.0028490
        k(  125) = (   0.3333333   0.0000000   0.4615385), wk =   0.0028490
        k(  126) = (   0.3333333   0.1111111   0.0000000), wk =   0.0028490
        k(  127) = (   0.3333333   0.1111111   0.0769231), wk =   0.0028490
        k(  128) = (   0.3333333   0.1111111   0.1538462), wk =   0.0028490
        k(  129) = (   0.3333333   0.1111111   0.2307692), wk =   0.0028490
        k(  130) = (   0.3333333   0.1111111   0.3076923), wk =   0.0028490
        k(  131) = (   0.3333333   0.1111111   0.3846154), wk =   0.0028490
        k(  132) = (   0.3333333   0.1111111   0.4615385), wk =   0.0028490
        k(  133) = (   0.3333333   0.1111111  -0.4615385), wk =   0.0028490
        k(  134) = (   0.3333333   0.1111111  -0.3846154), wk =   0.0028490
        k(  135) = (   0.3333333   0.1111111  -0.3076923), wk =   0.0028490
        k(  136) = (   0.3333333   0.1111111  -0.2307692), wk =   0.0028490
        k(  137) = (   0.3333333   0.1111111  -0.1538462), wk =   0.0028490
        k(  138) = (   0.3333333   0.1111111  -0.0769231), wk =   0.0028490
        k(  139) = (   0.3333333   0.2222222   0.0000000), wk =   0.0028490
        k(  140) = (   0.3333333   0.2222222   0.0769231), wk =   0.0028490
        k(  141) = (   0.3333333   0.2222222   0.1538462), wk =   0.0028490
        k(  142) = (   0.3333333   0.2222222   0.2307692), wk =   0.0028490
        k(  143) = (   0.3333333   0.2222222   0.3076923), wk =   0.0028490
        k(  144) = (   0.3333333   0.2222222   0.3846154), wk =   0.0028490
        k(  145) = (   0.3333333   0.2222222   0.4615385), wk =   0.0028490
        k(  146) = (   0.3333333   0.2222222  -0.4615385), wk =   0.0028490
        k(  147) = (   0.3333333   0.2222222  -0.3846154), wk =   0.0028490
        k(  148) = (   0.3333333   0.2222222  -0.3076923), wk =   0.0028490
        k(  149) = (   0.3333333   0.2222222  -0.2307692), wk =   0.0028490
        k(  150) = (   0.3333333   0.2222222  -0.1538462), wk =   0.0028490
        k(  151) = (   0.3333333   0.2222222  -0.0769231), wk =   0.0028490
        k(  152) = (   0.3333333   0.3333333   0.0000000), wk =   0.0028490
        k(  153) = (   0.3333333   0.3333333   0.0769231), wk =   0.0028490
        k(  154) = (   0.3333333   0.3333333   0.1538462), wk =   0.0028490
        k(  155) = (   0.3333333   0.3333333   0.2307692), wk =   0.0028490
        k(  156) = (   0.3333333   0.3333333   0.3076923), wk =   0.0028490
        k(  157) = (   0.3333333   0.3333333   0.3846154), wk =   0.0028490
        k(  158) = (   0.3333333   0.3333333   0.4615385), wk =   0.0028490
        k(  159) = (   0.3333333   0.3333333  -0.4615385), wk =   0.0028490
        k(  160) = (   0.3333333   0.3333333  -0.3846154), wk =   0.0028490
        k(  161) = (   0.3333333   0.3333333  -0.3076923), wk =   0.0028490
        k(  162) = (   0.3333333   0.3333333  -0.2307692), wk =   0.0028490
        k(  163) = (   0.3333333   0.3333333  -0.1538462), wk =   0.0028490
        k(  164) = (   0.3333333   0.3333333  -0.0769231), wk =   0.0028490
        k(  165) = (   0.3333333   0.4444444   0.0000000), wk =   0.0028490
        k(  166) = (   0.3333333   0.4444444   0.0769231), wk =   0.0028490
        k(  167) = (   0.3333333   0.4444444   0.1538462), wk =   0.0028490
        k(  168) = (   0.3333333   0.4444444   0.2307692), wk =   0.0028490
        k(  169) = (   0.3333333   0.4444444   0.3076923), wk =   0.0028490
        k(  170) = (   0.3333333   0.4444444   0.3846154), wk =   0.0028490
        k(  171) = (   0.3333333   0.4444444   0.4615385), wk =   0.0028490
        k(  172) = (   0.3333333   0.4444444  -0.4615385), wk =   0.0028490
        k(  173) = (   0.3333333   0.4444444  -0.3846154), wk =   0.0028490
        k(  174) = (   0.3333333   0.4444444  -0.3076923), wk =   0.0028490
        k(  175) = (   0.3333333   0.4444444  -0.2307692), wk =   0.0028490
        k(  176) = (   0.3333333   0.4444444  -0.1538462), wk =   0.0028490
        k(  177) = (   0.3333333   0.4444444  -0.0769231), wk =   0.0028490
        k(  178) = (  -0.5000000   0.0000000   0.0000000), wk =   0.0014245
        k(  179) = (  -0.5000000   0.0000000   0.0769231), wk =   0.0028490
        k(  180) = (  -0.5000000   0.0000000   0.1538462), wk =   0.0028490
        k(  181) = (  -0.5000000   0.0000000   0.2307692), wk =   0.0028490
        k(  182) = (  -0.5000000   0.0000000   0.3076923), wk =   0.0028490
        k(  183) = (  -0.5000000   0.0000000   0.3846154), wk =   0.0028490
        k(  184) = (  -0.5000000   0.0000000   0.4615385), wk =   0.0028490
        k(  185) = (  -0.5000000   0.1111111   0.0000000), wk =   0.0028490
        k(  186) = (  -0.5000000   0.1111111   0.0769231), wk =   0.0028490
        k(  187) = (  -0.5000000   0.1111111   0.1538462), wk =   0.0028490
        k(  188) = (  -0.5000000   0.1111111   0.2307692), wk =   0.0028490
        k(  189) = (  -0.5000000   0.1111111   0.3076923), wk =   0.0028490
        k(  190) = (  -0.5000000   0.1111111   0.3846154), wk =   0.0028490
        k(  191) = (  -0.5000000   0.1111111   0.4615385), wk =   0.0028490
        k(  192) = (  -0.5000000   0.1111111  -0.4615385), wk =   0.0028490
        k(  193) = (  -0.5000000   0.1111111  -0.3846154), wk =   0.0028490
        k(  194) = (  -0.5000000   0.1111111  -0.3076923), wk =   0.0028490
        k(  195) = (  -0.5000000   0.1111111  -0.2307692), wk =   0.0028490
        k(  196) = (  -0.5000000   0.1111111  -0.1538462), wk =   0.0028490
        k(  197) = (  -0.5000000   0.1111111  -0.0769231), wk =   0.0028490
        k(  198) = (  -0.5000000   0.2222222   0.0000000), wk =   0.0028490
        k(  199) = (  -0.5000000   0.2222222   0.0769231), wk =   0.0028490
        k(  200) = (  -0.5000000   0.2222222   0.1538462), wk =   0.0028490
        k(  201) = (  -0.5000000   0.2222222   0.2307692), wk =   0.0028490
        k(  202) = (  -0.5000000   0.2222222   0.3076923), wk =   0.0028490
        k(  203) = (  -0.5000000   0.2222222   0.3846154), wk =   0.0028490
        k(  204) = (  -0.5000000   0.2222222   0.4615385), wk =   0.0028490
        k(  205) = (  -0.5000000   0.2222222  -0.4615385), wk =   0.0028490
        k(  206) = (  -0.5000000   0.2222222  -0.3846154), wk =   0.0028490
        k(  207) = (  -0.5000000   0.2222222  -0.3076923), wk =   0.0028490
        k(  208) = (  -0.5000000   0.2222222  -0.2307692), wk =   0.0028490
        k(  209) = (  -0.5000000   0.2222222  -0.1538462), wk =   0.0028490
        k(  210) = (  -0.5000000   0.2222222  -0.0769231), wk =   0.0028490
        k(  211) = (  -0.5000000   0.3333333   0.0000000), wk =   0.0028490
        k(  212) = (  -0.5000000   0.3333333   0.0769231), wk =   0.0028490
        k(  213) = (  -0.5000000   0.3333333   0.1538462), wk =   0.0028490
        k(  214) = (  -0.5000000   0.3333333   0.2307692), wk =   0.0028490
        k(  215) = (  -0.5000000   0.3333333   0.3076923), wk =   0.0028490
        k(  216) = (  -0.5000000   0.3333333   0.3846154), wk =   0.0028490
        k(  217) = (  -0.5000000   0.3333333   0.4615385), wk =   0.0028490
        k(  218) = (  -0.5000000   0.3333333  -0.4615385), wk =   0.0028490
        k(  219) = (  -0.5000000   0.3333333  -0.3846154), wk =   0.0028490
        k(  220) = (  -0.5000000   0.3333333  -0.3076923), wk =   0.0028490
        k(  221) = (  -0.5000000   0.3333333  -0.2307692), wk =   0.0028490
        k(  222) = (  -0.5000000   0.3333333  -0.1538462), wk =   0.0028490
        k(  223) = (  -0.5000000   0.3333333  -0.0769231), wk =   0.0028490
        k(  224) = (  -0.5000000   0.4444444   0.0000000), wk =   0.0028490
        k(  225) = (  -0.5000000   0.4444444   0.0769231), wk =   0.0028490
        k(  226) = (  -0.5000000   0.4444444   0.1538462), wk =   0.0028490
        k(  227) = (  -0.5000000   0.4444444   0.2307692), wk =   0.0028490
        k(  228) = (  -0.5000000   0.4444444   0.3076923), wk =   0.0028490
        k(  229) = (  -0.5000000   0.4444444   0.3846154), wk =   0.0028490
        k(  230) = (  -0.5000000   0.4444444   0.4615385), wk =   0.0028490
        k(  231) = (  -0.5000000   0.4444444  -0.4615385), wk =   0.0028490
        k(  232) = (  -0.5000000   0.4444444  -0.3846154), wk =   0.0028490
        k(  233) = (  -0.5000000   0.4444444  -0.3076923), wk =   0.0028490
        k(  234) = (  -0.5000000   0.4444444  -0.2307692), wk =   0.0028490
        k(  235) = (  -0.5000000   0.4444444  -0.1538462), wk =   0.0028490
        k(  236) = (  -0.5000000   0.4444444  -0.0769231), wk =   0.0028490
        k(  237) = (   0.1666667  -0.0000000  -0.0769231), wk =   0.0028490
        k(  238) = (   0.1666667  -0.0000000  -0.1538462), wk =   0.0028490
        k(  239) = (   0.1666667  -0.0000000  -0.2307692), wk =   0.0028490
        k(  240) = (   0.1666667  -0.0000000  -0.3076923), wk =   0.0028490
        k(  241) = (   0.1666667  -0.0000000  -0.3846154), wk =   0.0028490
        k(  242) = (   0.1666667  -0.0000000  -0.4615385), wk =   0.0028490
        k(  243) = (   0.1666667  -0.1111111   0.0000000), wk =   0.0028490
        k(  244) = (   0.1666667  -0.1111111  -0.0769231), wk =   0.0028490
        k(  245) = (   0.1666667  -0.1111111  -0.1538462), wk =   0.0028490
        k(  246) = (   0.1666667  -0.1111111  -0.2307692), wk =   0.0028490
        k(  247) = (   0.1666667  -0.1111111  -0.3076923), wk =   0.0028490
        k(  248) = (   0.1666667  -0.1111111  -0.3846154), wk =   0.0028490
        k(  249) = (   0.1666667  -0.1111111  -0.4615385), wk =   0.0028490
        k(  250) = (   0.1666667  -0.1111111   0.4615385), wk =   0.0028490
        k(  251) = (   0.1666667  -0.1111111   0.3846154), wk =   0.0028490
        k(  252) = (   0.1666667  -0.1111111   0.3076923), wk =   0.0028490
        k(  253) = (   0.1666667  -0.1111111   0.2307692), wk =   0.0028490
        k(  254) = (   0.1666667  -0.1111111   0.1538462), wk =   0.0028490
        k(  255) = (   0.1666667  -0.1111111   0.0769231), wk =   0.0028490
        k(  256) = (   0.1666667  -0.2222222   0.0000000), wk =   0.0028490
        k(  257) = (   0.1666667  -0.2222222  -0.0769231), wk =   0.0028490
        k(  258) = (   0.1666667  -0.2222222  -0.1538462), wk =   0.0028490
        k(  259) = (   0.1666667  -0.2222222  -0.2307692), wk =   0.0028490
        k(  260) = (   0.1666667  -0.2222222  -0.3076923), wk =   0.0028490
        k(  261) = (   0.1666667  -0.2222222  -0.3846154), wk =   0.0028490
        k(  262) = (   0.1666667  -0.2222222  -0.4615385), wk =   0.0028490
        k(  263) = (   0.1666667  -0.2222222   0.4615385), wk =   0.0028490
        k(  264) = (   0.1666667  -0.2222222   0.3846154), wk =   0.0028490
        k(  265) = (   0.1666667  -0.2222222   0.3076923), wk =   0.0028490
        k(  266) = (   0.1666667  -0.2222222   0.2307692), wk =   0.0028490
        k(  267) = (   0.1666667  -0.2222222   0.1538462), wk =   0.0028490
        k(  268) = (   0.1666667  -0.2222222   0.0769231), wk =   0.0028490
        k(  269) = (   0.1666667  -0.3333333   0.0000000), wk =   0.0028490
        k(  270) = (   0.1666667  -0.3333333  -0.0769231), wk =   0.0028490
        k(  271) = (   0.1666667  -0.3333333  -0.1538462), wk =   0.0028490
        k(  272) = (   0.1666667  -0.3333333  -0.2307692), wk =   0.0028490
        k(  273) = (   0.1666667  -0.3333333  -0.3076923), wk =   0.0028490
        k(  274) = (   0.1666667  -0.3333333  -0.3846154), wk =   0.0028490
        k(  275) = (   0.1666667  -0.3333333  -0.4615385), wk =   0.0028490
        k(  276) = (   0.1666667  -0.3333333   0.4615385), wk =   0.0028490
        k(  277) = (   0.1666667  -0.3333333   0.3846154), wk =   0.0028490
        k(  278) = (   0.1666667  -0.3333333   0.3076923), wk =   0.0028490
        k(  279) = (   0.1666667  -0.3333333   0.2307692), wk =   0.0028490
        k(  280) = (   0.1666667  -0.3333333   0.1538462), wk =   0.0028490
        k(  281) = (   0.1666667  -0.3333333   0.0769231), wk =   0.0028490
        k(  282) = (   0.1666667  -0.4444444   0.0000000), wk =   0.0028490
        k(  283) = (   0.1666667  -0.4444444  -0.0769231), wk =   0.0028490
        k(  284) = (   0.1666667  -0.4444444  -0.1538462), wk =   0.0028490
        k(  285) = (   0.1666667  -0.4444444  -0.2307692), wk =   0.0028490
        k(  286) = (   0.1666667  -0.4444444  -0.3076923), wk =   0.0028490
        k(  287) = (   0.1666667  -0.4444444  -0.3846154), wk =   0.0028490
        k(  288) = (   0.1666667  -0.4444444  -0.4615385), wk =   0.0028490
        k(  289) = (   0.1666667  -0.4444444   0.4615385), wk =   0.0028490
        k(  290) = (   0.1666667  -0.4444444   0.3846154), wk =   0.0028490
        k(  291) = (   0.1666667  -0.4444444   0.3076923), wk =   0.0028490
        k(  292) = (   0.1666667  -0.4444444   0.2307692), wk =   0.0028490
        k(  293) = (   0.1666667  -0.4444444   0.1538462), wk =   0.0028490
        k(  294) = (   0.1666667  -0.4444444   0.0769231), wk =   0.0028490
        k(  295) = (   0.3333333  -0.0000000  -0.0769231), wk =   0.0028490
        k(  296) = (   0.3333333  -0.0000000  -0.1538462), wk =   0.0028490
        k(  297) = (   0.3333333  -0.0000000  -0.2307692), wk =   0.0028490
        k(  298) = (   0.3333333  -0.0000000  -0.3076923), wk =   0.0028490
        k(  299) = (   0.3333333  -0.0000000  -0.3846154), wk =   0.0028490
        k(  300) = (   0.3333333  -0.0000000  -0.4615385), wk =   0.0028490
        k(  301) = (   0.3333333  -0.1111111   0.0000000), wk =   0.0028490
        k(  302) = (   0.3333333  -0.1111111  -0.0769231), wk =   0.0028490
        k(  303) = (   0.3333333  -0.1111111  -0.1538462), wk =   0.0028490
        k(  304) = (   0.3333333  -0.1111111  -0.2307692), wk =   0.0028490
        k(  305) = (   0.3333333  -0.1111111  -0.3076923), wk =   0.0028490
        k(  306) = (   0.3333333  -0.1111111  -0.3846154), wk =   0.0028490
        k(  307) = (   0.3333333  -0.1111111  -0.4615385), wk =   0.0028490
        k(  308) = (   0.3333333  -0.1111111   0.4615385), wk =   0.0028490
        k(  309) = (   0.3333333  -0.1111111   0.3846154), wk =   0.0028490
        k(  310) = (   0.3333333  -0.1111111   0.3076923), wk =   0.0028490
        k(  311) = (   0.3333333  -0.1111111   0.2307692), wk =   0.0028490
        k(  312) = (   0.3333333  -0.1111111   0.1538462), wk =   0.0028490
        k(  313) = (   0.3333333  -0.1111111   0.0769231), wk =   0.0028490
        k(  314) = (   0.3333333  -0.2222222   0.0000000), wk =   0.0028490
        k(  315) = (   0.3333333  -0.2222222  -0.0769231), wk =   0.0028490
        k(  316) = (   0.3333333  -0.2222222  -0.1538462), wk =   0.0028490
        k(  317) = (   0.3333333  -0.2222222  -0.2307692), wk =   0.0028490
        k(  318) = (   0.3333333  -0.2222222  -0.3076923), wk =   0.0028490
        k(  319) = (   0.3333333  -0.2222222  -0.3846154), wk =   0.0028490
        k(  320) = (   0.3333333  -0.2222222  -0.4615385), wk =   0.0028490
        k(  321) = (   0.3333333  -0.2222222   0.4615385), wk =   0.0028490
        k(  322) = (   0.3333333  -0.2222222   0.3846154), wk =   0.0028490
        k(  323) = (   0.3333333  -0.2222222   0.3076923), wk =   0.0028490
        k(  324) = (   0.3333333  -0.2222222   0.2307692), wk =   0.0028490
        k(  325) = (   0.3333333  -0.2222222   0.1538462), wk =   0.0028490
        k(  326) = (   0.3333333  -0.2222222   0.0769231), wk =   0.0028490
        k(  327) = (   0.3333333  -0.3333333   0.0000000), wk =   0.0028490
        k(  328) = (   0.3333333  -0.3333333  -0.0769231), wk =   0.0028490
        k(  329) = (   0.3333333  -0.3333333  -0.1538462), wk =   0.0028490
        k(  330) = (   0.3333333  -0.3333333  -0.2307692), wk =   0.0028490
        k(  331) = (   0.3333333  -0.3333333  -0.3076923), wk =   0.0028490
        k(  332) = (   0.3333333  -0.3333333  -0.3846154), wk =   0.0028490
        k(  333) = (   0.3333333  -0.3333333  -0.4615385), wk =   0.0028490
        k(  334) = (   0.3333333  -0.3333333   0.4615385), wk =   0.0028490
        k(  335) = (   0.3333333  -0.3333333   0.3846154), wk =   0.0028490
        k(  336) = (   0.3333333  -0.3333333   0.3076923), wk =   0.0028490
        k(  337) = (   0.3333333  -0.3333333   0.2307692), wk =   0.0028490
        k(  338) = (   0.3333333  -0.3333333   0.1538462), wk =   0.0028490
        k(  339) = (   0.3333333  -0.3333333   0.0769231), wk =   0.0028490
        k(  340) = (   0.3333333  -0.4444444   0.0000000), wk =   0.0028490
        k(  341) = (   0.3333333  -0.4444444  -0.0769231), wk =   0.0028490
        k(  342) = (   0.3333333  -0.4444444  -0.1538462), wk =   0.0028490
        k(  343) = (   0.3333333  -0.4444444  -0.2307692), wk =   0.0028490
        k(  344) = (   0.3333333  -0.4444444  -0.3076923), wk =   0.0028490
        k(  345) = (   0.3333333  -0.4444444  -0.3846154), wk =   0.0028490
        k(  346) = (   0.3333333  -0.4444444  -0.4615385), wk =   0.0028490
        k(  347) = (   0.3333333  -0.4444444   0.4615385), wk =   0.0028490
        k(  348) = (   0.3333333  -0.4444444   0.3846154), wk =   0.0028490
        k(  349) = (   0.3333333  -0.4444444   0.3076923), wk =   0.0028490
        k(  350) = (   0.3333333  -0.4444444   0.2307692), wk =   0.0028490
        k(  351) = (   0.3333333  -0.4444444   0.1538462), wk =   0.0028490
        k(  352) = (   0.3333333  -0.4444444   0.0769231), wk =   0.0028490

     Dense  grid:   331113 G-vectors     FFT dimensions: ( 135,  90,  64)

     Smooth grid:   117017 G-vectors     FFT dimensions: (  96,  64,  45)

     Estimated max dynamical RAM per process >     408.05MB

     Estimated total allocated dynamical RAM >  104460.86MB
     Generating pointlists ...
     new r_m :   0.0847 (alat units)  1.8098 (a.u.) for type    1
     new r_m :   0.0950 (alat units)  2.0294 (a.u.) for type    2

     Initial potential from superposition of free atoms
     Check: negative starting charge=(component1):   -0.515464
     Check: negative starting charge=(component2):   -0.210157

     starting charge  191.96750, renormalised to  192.00000

     negative rho (up, down):  5.156E-01 2.102E-01
     Starting wfc are  204 randomized atomic wfcs

     total cpu time spent up to now is       50.1 secs

     per-process dynamical memory:   300.0 Mb

     Self-consistent Calculation

     iteration #  1     ecut=    45.00 Ry     beta=0.35
     Davidson diagonalization with overlap
     ethr =  1.00E-02,  avg # of iterations =  2.5

     negative rho (up, down):  4.642E-01 2.632E-01

     total cpu time spent up to now is      103.0 secs

     total energy              =   -1326.81059542 Ry
     Harris-Foulkes estimate   =   -1325.34951522 Ry
     estimated scf accuracy    <       2.14993743 Ry

     total magnetization       =     9.84 Bohr mag/cell
     absolute magnetization    =    11.88 Bohr mag/cell

     iteration #  2     ecut=    45.00 Ry     beta=0.35
     Davidson diagonalization with overlap
     ethr =  1.12E-03,  avg # of iterations =  1.7

     negative rho (up, down):  4.012E-01 3.325E-01

     total cpu time spent up to now is      151.0 secs

     total energy              =   -1328.05547143 Ry
     Harris-Foulkes estimate   =   -1326.93003841 Ry
     estimated scf accuracy    <       0.94019551 Ry

     total magnetization       =     6.81 Bohr mag/cell
     absolute magnetization    =     8.99 Bohr mag/cell

     iteration #  3     ecut=    45.00 Ry     beta=0.35
     Davidson diagonalization with overlap
     ethr =  4.90E-04,  avg # of iterations =  5.4

     negative rho (up, down):  3.887E-01 3.464E-01

     total cpu time spent up to now is      213.9 secs

     total energy              =   -1328.06591780 Ry
     Harris-Foulkes estimate   =   -1328.37800327 Ry
     estimated scf accuracy    <       3.10026011 Ry

     total magnetization       =     3.40 Bohr mag/cell
     absolute magnetization    =     4.83 Bohr mag/cell

     iteration #  4     ecut=    45.00 Ry     beta=0.35
     Davidson diagonalization with overlap
     ethr =  4.90E-04,  avg # of iterations =  4.9

     negative rho (up, down):  3.759E-01 3.611E-01

     total cpu time spent up to now is      273.4 secs

     total energy              =   -1328.38691552 Ry
     Harris-Foulkes estimate   =   -1328.36171418 Ry
     estimated scf accuracy    <       0.44656455 Ry

     total magnetization       =     1.99 Bohr mag/cell
     absolute magnetization    =     3.43 Bohr mag/cell

     iteration #  5     ecut=    45.00 Ry     beta=0.35
     Davidson diagonalization with overlap
     ethr =  2.33E-04,  avg # of iterations =  2.5

     negative rho (up, down):  3.686E-01 3.699E-01

     total cpu time spent up to now is      323.0 secs

     total energy              =   -1328.44818215 Ry
     Harris-Foulkes estimate   =   -1328.44089833 Ry
     estimated scf accuracy    <       0.09852424 Ry

     total magnetization       =     1.09 Bohr mag/cell
     absolute magnetization    =     2.27 Bohr mag/cell

     iteration #  6     ecut=    45.00 Ry     beta=0.35
     Davidson diagonalization with overlap
     ethr =  5.13E-05,  avg # of iterations =  4.9

     negative rho (up, down):  3.669E-01 3.720E-01

     total cpu time spent up to now is      386.8 secs

     total energy              =   -1328.46825346 Ry
     Harris-Foulkes estimate   =   -1328.46897382 Ry
     estimated scf accuracy    <       0.02789913 Ry

     total magnetization       =     0.55 Bohr mag/cell
     absolute magnetization    =     1.38 Bohr mag/cell

     iteration #  7     ecut=    45.00 Ry     beta=0.35
     Davidson diagonalization with overlap
     ethr =  1.45E-05,  avg # of iterations =  5.8

     negative rho (up, down):  3.667E-01 3.722E-01

     total cpu time spent up to now is      452.8 secs

     total energy              =   -1328.47495248 Ry
     Harris-Foulkes estimate   =   -1328.47352589 Ry
     estimated scf accuracy    <       0.00654302 Ry

     total magnetization       =     0.37 Bohr mag/cell
     absolute magnetization    =     1.03 Bohr mag/cell

     iteration #  8     ecut=    45.00 Ry     beta=0.35
     Davidson diagonalization with overlap
     ethr =  3.41E-06,  avg # of iterations =  6.4

     negative rho (up, down):  3.670E-01 3.720E-01

     total cpu time spent up to now is      522.7 secs

     total energy              =   -1328.47646785 Ry
     Harris-Foulkes estimate   =   -1328.47619547 Ry
     estimated scf accuracy    <       0.00423542 Ry

     total magnetization       =     0.28 Bohr mag/cell
     absolute magnetization    =     0.81 Bohr mag/cell

     iteration #  9     ecut=    45.00 Ry     beta=0.35
     Davidson diagonalization with overlap
     ethr =  2.21E-06,  avg # of iterations =  4.5

     negative rho (up, down):  3.675E-01 3.714E-01

     total cpu time spent up to now is      584.7 secs

     total energy              =   -1328.47852311 Ry
     Harris-Foulkes estimate   =   -1328.47706787 Ry
     estimated scf accuracy    <       0.00194058 Ry

     total magnetization       =     0.24 Bohr mag/cell
     absolute magnetization    =     0.73 Bohr mag/cell

     iteration # 10     ecut=    45.00 Ry     beta=0.35
     Davidson diagonalization with overlap
     ethr =  1.01E-06,  avg # of iterations =  2.6

     negative rho (up, down):  3.684E-01 3.706E-01

     total cpu time spent up to now is      635.7 secs

     total energy              =   -1328.48010554 Ry
     Harris-Foulkes estimate   =   -1328.47883332 Ry
     estimated scf accuracy    <       0.00034582 Ry

     total magnetization       =     0.17 Bohr mag/cell
     absolute magnetization    =     0.53 Bohr mag/cell

     iteration # 11     ecut=    45.00 Ry     beta=0.35
     Davidson diagonalization with overlap
     ethr =  1.80E-07,  avg # of iterations =  3.9

     negative rho (up, down):  3.689E-01 3.700E-01

     total cpu time spent up to now is      699.3 secs

     total energy              =   -1328.48074715 Ry
     Harris-Foulkes estimate   =   -1328.48039240 Ry
     estimated scf accuracy    <       0.00007339 Ry

     total magnetization       =     0.08 Bohr mag/cell
     absolute magnetization    =     0.27 Bohr mag/cell

     iteration # 12     ecut=    45.00 Ry     beta=0.35
     Davidson diagonalization with overlap
     ethr =  3.82E-08,  avg # of iterations =  3.9

     negative rho (up, down):  3.693E-01 3.697E-01

     total cpu time spent up to now is      763.9 secs

     total energy              =   -1328.48090854 Ry
     Harris-Foulkes estimate   =   -1328.48083479 Ry
     estimated scf accuracy    <       0.00002013 Ry

     total magnetization       =     0.03 Bohr mag/cell
     absolute magnetization    =     0.13 Bohr mag/cell

     iteration # 13     ecut=    45.00 Ry     beta=0.35
     Davidson diagonalization with overlap
     ethr =  1.05E-08,  avg # of iterations =  3.8

     negative rho (up, down):  3.694E-01 3.696E-01

     total cpu time spent up to now is      826.6 secs

     total energy              =   -1328.48094432 Ry
     Harris-Foulkes estimate   =   -1328.48092722 Ry
     estimated scf accuracy    <       0.00000690 Ry

     total magnetization       =     0.02 Bohr mag/cell
     absolute magnetization    =     0.06 Bohr mag/cell

     iteration # 14     ecut=    45.00 Ry     beta=0.35
     Davidson diagonalization with overlap
     ethr =  3.59E-09,  avg # of iterations =  3.8

     negative rho (up, down):  3.695E-01 3.695E-01

     total cpu time spent up to now is      888.7 secs

     total energy              =   -1328.48095302 Ry
     Harris-Foulkes estimate   =   -1328.48094980 Ry
     estimated scf accuracy    <       0.00000438 Ry

     total magnetization       =     0.01 Bohr mag/cell
     absolute magnetization    =     0.03 Bohr mag/cell

     iteration # 15     ecut=    45.00 Ry     beta=0.35
     Davidson diagonalization with overlap
     ethr =  2.28E-09,  avg # of iterations =  3.0

     negative rho (up, down):  3.695E-01 3.695E-01

     total cpu time spent up to now is      943.9 secs

     total energy              =   -1328.48095498 Ry
     Harris-Foulkes estimate   =   -1328.48095444 Ry
     estimated scf accuracy    <       0.00000163 Ry

     total magnetization       =     0.00 Bohr mag/cell
     absolute magnetization    =     0.02 Bohr mag/cell

     iteration # 16     ecut=    45.00 Ry     beta=0.35
     Davidson diagonalization with overlap
     ethr =  8.50E-10,  avg # of iterations =  3.0

     negative rho (up, down):  3.695E-01 3.695E-01

     total cpu time spent up to now is      995.3 secs

     total energy              =   -1328.48095595 Ry
     Harris-Foulkes estimate   =   -1328.48095530 Ry
     estimated scf accuracy    <       0.00000122 Ry

     total magnetization       =     0.00 Bohr mag/cell
     absolute magnetization    =     0.01 Bohr mag/cell

     iteration # 17     ecut=    45.00 Ry     beta=0.35
     Davidson diagonalization with overlap
     ethr =  6.38E-10,  avg # of iterations =  3.0

     negative rho (up, down):  3.695E-01 3.695E-01

     total cpu time spent up to now is     1048.4 secs

     total energy              =   -1328.48095635 Ry
     Harris-Foulkes estimate   =   -1328.48095623 Ry
     estimated scf accuracy    <       0.00000024 Ry

     total magnetization       =     0.00 Bohr mag/cell
     absolute magnetization    =     0.01 Bohr mag/cell

     iteration # 18     ecut=    45.00 Ry     beta=0.35
     Davidson diagonalization with overlap
     ethr =  1.26E-10,  avg # of iterations =  3.1

     negative rho (up, down):  3.695E-01 3.695E-01
 
     Magnetic moment per site:
     atom:    1    charge:    9.0735    magn:    0.0001    constr:    0.0000
     atom:    2    charge:    9.0785    magn:    0.0001    constr:    0.0000
     atom:    3    charge:    9.0594    magn:    0.0002    constr:    0.0000
     atom:    4    charge:    9.0773    magn:    0.0002    constr:    0.0000
     atom:    5    charge:    9.0833    magn:    0.0001    constr:    0.0000
     atom:    6    charge:    9.0857    magn:    0.0001    constr:    0.0000
     atom:    7    charge:    9.0854    magn:    0.0000    constr:    0.0000
     atom:    8    charge:    9.0629    magn:    0.0002    constr:    0.0000
     atom:    9    charge:    9.0852    magn:    0.0000    constr:    0.0000
     atom:   10    charge:    9.0851    magn:    0.0001    constr:    0.0000
     atom:   11    charge:    9.0649    magn:    0.0002    constr:    0.0000
     atom:   12    charge:    9.0835    magn:    0.0000    constr:    0.0000
     atom:   13    charge:    1.7877    magn:   -0.0001    constr:    0.0000
     atom:   14    charge:    1.8020    magn:   -0.0001    constr:    0.0000
     atom:   15    charge:    1.7988    magn:   -0.0001    constr:    0.0000
     atom:   16    charge:    1.7858    magn:   -0.0001    constr:    0.0000
     atom:   17    charge:    1.8053    magn:   -0.0001    constr:    0.0000
     atom:   18    charge:    1.7735    magn:   -0.0001    constr:    0.0000
     atom:   19    charge:    1.8031    magn:   -0.0001    constr:    0.0000
     atom:   20    charge:    1.8012    magn:   -0.0001    constr:    0.0000
     atom:   21    charge:    1.8034    magn:   -0.0001    constr:    0.0000
     atom:   22    charge:    1.7896    magn:   -0.0001    constr:    0.0000
     atom:   23    charge:    1.7928    magn:   -0.0001    constr:    0.0000
     atom:   24    charge:    1.7928    magn:   -0.0000    constr:    0.0000

     total cpu time spent up to now is     1101.6 secs

     End of self-consistent calculation

 ------ SPIN UP ------------


          k = 0.0000 0.0000 0.0000 ( 14633 PWs)   bands (ev):

   -35.1769 -35.1517 -35.1405 -35.1271 -35.1178 -35.1051 -35.1041 -35.0976
   -35.0885 -35.0863 -35.0804 -35.0608 -13.4417 -13.4198 -13.4138 -13.4065
   -13.3962 -13.3634 -13.3570 -13.3399 -13.3252 -13.3070 -13.3014 -13.2892
   -13.2822 -13.2580 -13.2411 -13.2103 -13.1979 -13.1944 -13.1892 -13.1842
   -13.1794 -13.1633 -13.1585 -13.1428 -13.1394 -13.1308 -13.1228 -13.1205
   -13.1049 -13.0968 -13.0826 -13.0791 -13.0702 -13.0401 -13.0322 -13.0045
     2.1866   3.2198   3.3889   3.5477   4.0884   4.2280   6.0906   6.1460
     6.2318   6.3385   6.7590   7.5275   8.8608   8.9274   8.9814   9.1572
     9.2474   9.8450   9.9415   9.9614  10.0330  10.0786  10.1293  10.2461
    10.7646  10.8068  10.8266  10.8633  10.8712  10.8983  10.9773  11.0321
    11.0752  11.2153  11.3051  11.3739  11.6913  11.7837  12.0232  12.0404
    12.1603  12.2230  12.3648  12.5226  12.5541  12.8650  13.1703  14.0562
    14.1006  14.1081  14.5100  14.6814  14.7390  14.9418  15.0918  15.3676
    15.3921  15.4986  15.5609  15.6267  15.6411  15.6827  15.8495  15.9008
    16.0041  16.0110  16.0327

     occupation numbers 
     1.0000   1.0000   1.0000   1.0000   1.0000   1.0000   1.0000   1.0000
     1.0000   1.0000   1.0000   1.0000   1.0000   1.0000   1.0000   1.0000
     1.0000   1.0000   1.0000   1.0000   1.0000   1.0000   1.0000   1.0000
     1.0000   1.0000   1.0000   1.0000   1.0000   1.0000   1.0000   1.0000
     1.0000   1.0000   1.0000   1.0000   1.0000   1.0000   1.0000   1.0000
     1.0000   1.0000   1.0000   1.0000   1.0000   1.0000   1.0000   1.0000
     1.0000   1.0000   1.0000   1.0000   1.0000   1.0000   1.0000   1.0000
     1.0000   1.0000   1.0000   1.0000   1.0000   1.0000   1.0000   1.0000
     1.0000   1.0000   1.0000   1.0000   1.0000   1.0000   1.0000   1.0000
     1.0000   1.0000   1.0000   1.0000   1.0000   1.0000   1.0000   1.0000
     1.0000   1.0000   1.0000   1.0000   1.0000   1.0000   1.0000   1.0000
     1.0000   1.0000   1.0000   1.0000   1.0000   1.0049   1.0771   0.0018
     0.0008   0.0007   0.0000   0.0000   0.0000   0.0000   0.0000   0.0000
     0.0000   0.0000   0.0000   0.0000   0.0000   0.0000   0.0000   0.0000
     0.0000   0.0000   0.0000

          k = 0.0000-0.0619 0.1633 ( 14642 PWs)   bands (ev):

   -35.1764 -35.1513 -35.1406 -35.1269 -35.1175 -35.1053 -35.1038 -35.0978
   -35.0889 -35.0862 -35.0808 -35.0612 -13.4477 -13.4174 -13.4116 -13.4044
   -13.3884 -13.3680 -13.3610 -13.3576 -13.3426 -13.2971 -13.2920 -13.2831
   -13.2808 -13.2541 -13.2431 -13.2119 -13.1990 -13.1960 -13.1914 -13.1844
   -13.1805 -13.1659 -13.1609 -13.1410 -13.1380 -13.1324 -13.1200 -13.1167
   -13.1041 -13.0880 -13.0831 -13.0793 -13.0640 -13.0409 -13.0327 -13.0088
     2.2137   3.2324   3.4044   3.5601   4.0879   4.2279   6.1010   6.1599
     6.2452   6.3460   6.7247   7.5742   8.7808   8.7979   8.8911   9.1097
     9.1945   9.8418   9.8927   9.9200  10.0726  10.1707  10.2185  10.2646
    10.7763  10.8090  10.8343  10.8643  10.8951  10.9085  10.9769  11.0545
    11.1216  11.2464  11.3261  11.3862  11.7113  11.8081  12.0533  12.0758
    12.2263  12.2812  12.3890  12.5109  12.5431  12.7938  13.2016  14.0050
    14.1143  14.1286  14.3875  14.5939  14.7161  14.9152  15.1567  15.2148
    15.2406  15.3387  15.4089  15.6801  15.7011  15.7343  15.7638  15.8241
    15.9418  15.9689  16.1880

     occupation numbers 
     1.0000   1.0000   1.0000   1.0000   1.0000   1.0000   1.0000   1.0000
     1.0000   1.0000   1.0000   1.0000   1.0000   1.0000   1.0000   1.0000
     1.0000   1.0000   1.0000   1.0000   1.0000   1.0000   1.0000   1.0000
     1.0000   1.0000   1.0000   1.0000   1.0000   1.0000   1.0000   1.0000
     1.0000   1.0000   1.0000   1.0000   1.0000   1.0000   1.0000   1.0000
     1.0000   1.0000   1.0000   1.0000   1.0000   1.0000   1.0000   1.0000
     1.0000   1.0000   1.0000   1.0000   1.0000   1.0000   1.0000   1.0000
     1.0000   1.0000   1.0000   1.0000   1.0000   1.0000   1.0000   1.0000
     1.0000   1.0000   1.0000   1.0000   1.0000   1.0000   1.0000   1.0000
     1.0000   1.0000   1.0000   1.0000   1.0000   1.0000   1.0000   1.0000
     1.0000   1.0000   1.0000   1.0000   1.0000   1.0000   1.0000   1.0000
     1.0000   1.0000   1.0000   1.0000   1.0000   1.0017   1.0825   0.0044
     0.0006   0.0005   0.0000   0.0000   0.0000   0.0000   0.0000   0.0000
     0.0000   0.0000   0.0000   0.0000   0.0000   0.0000   0.0000   0.0000
     0.0000   0.0000   0.0000

          k = 0.0000-0.1238 0.3266 ( 14634 PWs)   bands (ev):

   -35.1750 -35.1502 -35.1408 -35.1264 -35.1167 -35.1056 -35.1034 -35.0981
   -35.0900 -35.0861 -35.0818 -35.0625 -13.4569 -13.4141 -13.4075 -13.3970
   -13.3884 -13.3812 -13.3749 -13.3608 -13.3580 -13.3025 -13.2907 -13.2840
   -13.2775 -13.2488 -13.2465 -13.2124 -13.2019 -13.1945 -13.1860 -13.1828
   -13.1754 -13.1695 -13.1625 -13.1393 -13.1348 -13.1300 -13.1151 -13.1110
   -13.1030 -13.0888 -13.0809 -13.0663 -13.0538 -13.0460 -13.0324 -13.0175
     2.2912   3.2635   3.4476   3.6008   4.0873   4.2282   6.1251   6.1992
     6.2796   6.3669   6.6275   7.7092   8.5159   8.5779   8.6739   9.0183
     9.0898   9.7728   9.8328  10.0112  10.0729  10.1884  10.3703  10.3975
    10.7447  10.7614  10.8209  10.8662  10.9004  10.9714  11.0039  11.1135
    11.2450  11.3225  11.4156  11.4661  11.7749  11.8781  12.1416  12.1690
    12.3788  12.3965  12.4379  12.4782  12.5188  12.6409  13.2976  13.8258
    14.1459  14.1852  14.2150  14.4529  14.6664  14.8429  14.9234  14.9540
    15.0712  15.0995  15.3849  15.3948  15.5807  15.7126  15.7695  15.8567
    15.9208  15.9605  16.1442

     occupation numbers 
     1.0000   1.0000   1.0000   1.0000   1.0000   1.0000   1.0000   1.0000
[...]
     1.0000   1.0000   1.0000   1.0000   1.0000   1.0000   1.0000   1.0000
     1.0000   1.0000   1.0000   1.0000   1.0000   1.0000   1.0000   1.0000
     1.0000   1.0000   1.0000   1.0000   1.0000   1.0000   1.0000   1.0000
     1.0000   1.0000   1.0000   1.0000   1.0000   1.0000   1.0000   1.0000
     1.0000   1.0000   1.0000   1.0000   1.0000   1.0000   1.0000   1.0000
     1.0000   1.0000   1.0001   1.0002   1.0245   1.0821   1.0525   1.0297
     0.6403   0.0403   0.0099   0.0051   0.0000   0.0000   0.0000   0.0000
     0.0000   0.0000   0.0000   0.0000   0.0000   0.0000   0.0000   0.0000
     0.0000   0.0000   0.0000

          k = 0.3333-0.3406-0.9798 ( 14636 PWs)   bands (ev):

   -35.1660 -35.1441 -35.1429 -35.1183 -35.1145 -35.1054 -35.1025 -35.0988
   -35.0955 -35.0900 -35.0844 -35.0683 -13.4373 -13.4187 -13.4097 -13.4010
   -13.3910 -13.3708 -13.3653 -13.3577 -13.3490 -13.3343 -13.3162 -13.3056
   -13.2906 -13.2754 -13.2605 -13.2408 -13.2254 -13.2194 -13.2092 -13.1952
   -13.1530 -13.1470 -13.1398 -13.1328 -13.1226 -13.1171 -13.1112 -13.0979
   -13.0804 -13.0675 -13.0636 -13.0580 -13.0451 -13.0429 -13.0301 -13.0256
     2.9948   3.1539   3.3926   3.5478   4.6526   4.7325   5.5063   5.5483
     6.7699   6.8232   6.9140   7.0352   8.7481   8.8925   8.9313   8.9743
     9.2527   9.3300   9.4248   9.5315   9.6157   9.7237   9.9128  10.0074
    10.5794  10.6120  10.6728  10.7719  10.8606  10.9232  11.0130  11.0931
    11.3249  11.4671  11.5660  11.6973  12.0774  12.2002  12.2400  12.3363
    12.4236  12.5050  12.5535  12.5952  13.0051  13.1266  13.1868  13.2890
    13.8754  14.0361  14.0866  14.1789  14.2094  14.3200  14.6126  14.6321
    14.7488  14.7898  14.9681  15.0344  15.1011  15.2325  15.3166  15.4253
    15.5739  15.7465  15.8301

     occupation numbers 
     1.0000   1.0000   1.0000   1.0000   1.0000   1.0000   1.0000   1.0000
     1.0000   1.0000   1.0000   1.0000   1.0000   1.0000   1.0000   1.0000
     1.0000   1.0000   1.0000   1.0000   1.0000   1.0000   1.0000   1.0000
     1.0000   1.0000   1.0000   1.0000   1.0000   1.0000   1.0000   1.0000
     1.0000   1.0000   1.0000   1.0000   1.0000   1.0000   1.0000   1.0000
     1.0000   1.0000   1.0000   1.0000   1.0000   1.0000   1.0000   1.0000
     1.0000   1.0000   1.0000   1.0000   1.0000   1.0000   1.0000   1.0000
     1.0000   1.0000   1.0000   1.0000   1.0000   1.0000   1.0000   1.0000
     1.0000   1.0000   1.0000   1.0000   1.0000   1.0000   1.0000   1.0000
     1.0000   1.0000   1.0000   1.0000   1.0000   1.0000   1.0000   1.0000
     1.0000   1.0000   1.0000   1.0000   1.0000   1.0000   1.0000   1.0000
     1.0000   1.0000   1.0000   1.0000   1.0258   1.0643   1.0804   1.0630
     0.0294   0.0026   0.0011   0.0002   0.0001   0.0000   0.0000   0.0000
     0.0000   0.0000   0.0000   0.0000   0.0000   0.0000   0.0000   0.0000
     0.0000   0.0000   0.0000

          k = 0.3333-1.0831 0.9798 ( 14638 PWs)   bands (ev):

   -35.1660 -35.1436 -35.1434 -35.1177 -35.1154 -35.1054 -35.1024 -35.0988
   -35.0956 -35.0902 -35.0843 -35.0683 -13.4394 -13.4212 -13.4091 -13.3983
   -13.3848 -13.3741 -13.3606 -13.3565 -13.3516 -13.3389 -13.3221 -13.3013
   -13.2872 -13.2743 -13.2582 -13.2405 -13.2321 -13.2143 -13.2124 -13.1956
   -13.1525 -13.1481 -13.1413 -13.1317 -13.1248 -13.1181 -13.1078 -13.0969
   -13.0802 -13.0738 -13.0645 -13.0538 -13.0451 -13.0405 -13.0335 -13.0226
     3.0393   3.1225   3.4194   3.5152   4.6640   4.7172   5.4889   5.5642
     6.7018   6.8048   6.9288   7.0762   8.6987   8.7709   8.9607   9.1118
     9.2346   9.3233   9.4595   9.6566   9.6732   9.7919   9.8429   9.9069
    10.5339  10.6073  10.6889  10.7343  10.7822  10.9506  10.9943  11.1400
    11.2955  11.4119  11.6263  11.8175  12.0673  12.1448  12.2114  12.3313
    12.3784  12.4892  12.5952  12.7535  12.9184  13.1222  13.2432  13.3886
    13.7266  13.8665  14.1417  14.2018  14.2501  14.2989  14.5289  14.6536
    14.7723  14.8661  15.0332  15.0661  15.1622  15.2293  15.2907  15.4641
    15.4938  15.7205  15.8259

     occupation numbers 
     1.0000   1.0000   1.0000   1.0000   1.0000   1.0000   1.0000   1.0000
     1.0000   1.0000   1.0000   1.0000   1.0000   1.0000   1.0000   1.0000
     1.0000   1.0000   1.0000   1.0000   1.0000   1.0000   1.0000   1.0000
     1.0000   1.0000   1.0000   1.0000   1.0000   1.0000   1.0000   1.0000
     1.0000   1.0000   1.0000   1.0000   1.0000   1.0000   1.0000   1.0000
     1.0000   1.0000   1.0000   1.0000   1.0000   1.0000   1.0000   1.0000
     1.0000   1.0000   1.0000   1.0000   1.0000   1.0000   1.0000   1.0000
     1.0000   1.0000   1.0000   1.0000   1.0000   1.0000   1.0000   1.0000
     1.0000   1.0000   1.0000   1.0000   1.0000   1.0000   1.0000   1.0000
     1.0000   1.0000   1.0000   1.0000   1.0000   1.0000   1.0000   1.0000
     1.0000   1.0000   1.0000   1.0000   1.0000   1.0000   1.0000   1.0000
     1.0000   1.0000   1.0000   1.0009   1.0099   1.0628   1.0811   0.9418
     0.1538   0.0330   0.0004   0.0001   0.0000   0.0000   0.0000   0.0000
     0.0000   0.0000   0.0000   0.0000   0.0000   0.0000   0.0000   0.0000
     0.0000   0.0000   0.0000

          k = 0.3333-1.0212 0.8165 ( 14627 PWs)   bands (ev):

   -35.1671 -35.1444 -35.1427 -35.1193 -35.1158 -35.1054 -35.1025 -35.0991
   -35.0943 -35.0891 -35.0841 -35.0670 -13.4388 -13.4220 -13.4041 -13.3910
   -13.3773 -13.3731 -13.3618 -13.3565 -13.3448 -13.3406 -13.3237 -13.3011
   -13.2816 -13.2640 -13.2578 -13.2418 -13.2366 -13.2157 -13.2103 -13.1958
   -13.1598 -13.1565 -13.1449 -13.1321 -13.1283 -13.1179 -13.1082 -13.0964
   -13.0889 -13.0744 -13.0687 -13.0637 -13.0412 -13.0364 -13.0291 -13.0195
     3.0129   3.0954   3.3918   3.4927   4.5965   4.7305   5.4226   5.5809
     6.6751   6.7981   6.9527   7.1538   8.6758   8.7339   8.9940   9.1538
     9.1967   9.3230   9.6625   9.6989   9.7440   9.8089   9.8549   9.9389
    10.5622  10.6000  10.6499  10.7332  10.8046  10.8792  11.0129  11.1527
    11.2549  11.3627  11.6428  11.8445  11.9656  12.0857  12.1782  12.2610
    12.2956  12.5630  12.6906  12.8572  12.9153  13.1843  13.3666  13.4400
    13.5169  13.6577  14.0492  14.0827  14.1080  14.4242  14.5278  14.7270
    15.0010  15.0553  15.1044  15.2047  15.2536  15.3150  15.3749  15.5270
    15.6512  15.7152  15.8651

     occupation numbers 
     1.0000   1.0000   1.0000   1.0000   1.0000   1.0000   1.0000   1.0000
     1.0000   1.0000   1.0000   1.0000   1.0000   1.0000   1.0000   1.0000
     1.0000   1.0000   1.0000   1.0000   1.0000   1.0000   1.0000   1.0000
     1.0000   1.0000   1.0000   1.0000   1.0000   1.0000   1.0000   1.0000
     1.0000   1.0000   1.0000   1.0000   1.0000   1.0000   1.0000   1.0000
     1.0000   1.0000   1.0000   1.0000   1.0000   1.0000   1.0000   1.0000
     1.0000   1.0000   1.0000   1.0000   1.0000   1.0000   1.0000   1.0000
     1.0000   1.0000   1.0000   1.0000   1.0000   1.0000   1.0000   1.0000
     1.0000   1.0000   1.0000   1.0000   1.0000   1.0000   1.0000   1.0000
     1.0000   1.0000   1.0000   1.0000   1.0000   1.0000   1.0000   1.0000
     1.0000   1.0000   1.0000   1.0000   1.0000   1.0000   1.0000   1.0000
     1.0000   1.0000   1.0003   1.0044   1.0095   1.0800   0.9789   0.8334
     0.6326   0.2744   0.0021   0.0011   0.0007   0.0000   0.0000   0.0000
     0.0000   0.0000   0.0000   0.0000   0.0000   0.0000   0.0000   0.0000
     0.0000   0.0000   0.0000

          k = 0.3333-0.9593 0.6532 ( 14634 PWs)   bands (ev):

   -35.1690 -35.1455 -35.1420 -35.1215 -35.1173 -35.1054 -35.1023 -35.0988
   -35.0926 -35.0882 -35.0831 -35.0652 -13.4345 -13.4158 -13.3998 -13.3854
   -13.3772 -13.3680 -13.3595 -13.3504 -13.3432 -13.3324 -13.3206 -13.2933
   -13.2883 -13.2624 -13.2515 -13.2387 -13.2282 -13.2195 -13.2050 -13.1949
   -13.1777 -13.1721 -13.1447 -13.1388 -13.1339 -13.1239 -13.1128 -13.1008
   -13.0921 -13.0869 -13.0683 -13.0608 -13.0406 -13.0355 -13.0264 -13.0144
     2.9534   3.0562   3.3356   3.4548   4.5300   4.7036   5.3596   5.5564
     6.6977   6.8081   6.9817   7.2607   8.6985   8.7847   8.9326   9.0185
     9.2639   9.5252   9.6573   9.7077   9.8185   9.8999   9.9825  10.0246
    10.4652  10.6392  10.6998  10.7594  10.8243  10.9039  10.9933  11.1365
    11.2149  11.3590  11.5916  11.7009  11.8846  12.0949  12.1233  12.2160
    12.4430  12.5072  12.5940  12.7658  12.8366  13.1983  13.2701  13.3941
    13.7127  13.8600  13.9243  14.1170  14.2314  14.5210  14.6512  14.7747
    14.9286  15.1396  15.1908  15.2039  15.3001  15.3847  15.5398  15.6884
    15.8099  15.8929  16.0539

     occupation numbers 
     1.0000   1.0000   1.0000   1.0000   1.0000   1.0000   1.0000   1.0000
     1.0000   1.0000   1.0000   1.0000   1.0000   1.0000   1.0000   1.0000
     1.0000   1.0000   1.0000   1.0000   1.0000   1.0000   1.0000   1.0000
     1.0000   1.0000   1.0000   1.0000   1.0000   1.0000   1.0000   1.0000
     1.0000   1.0000   1.0000   1.0000   1.0000   1.0000   1.0000   1.0000
     1.0000   1.0000   1.0000   1.0000   1.0000   1.0000   1.0000   1.0000
     1.0000   1.0000   1.0000   1.0000   1.0000   1.0000   1.0000   1.0000
     1.0000   1.0000   1.0000   1.0000   1.0000   1.0000   1.0000   1.0000
     1.0000   1.0000   1.0000   1.0000   1.0000   1.0000   1.0000   1.0000
     1.0000   1.0000   1.0000   1.0000   1.0000   1.0000   1.0000   1.0000
     1.0000   1.0000   1.0000   1.0000   1.0000   1.0000   1.0000   1.0000
     1.0000   1.0000   1.0000   1.0011   1.0032   1.0821   1.0729   0.9316
     0.1745   0.0358   0.0151   0.0006   0.0001   0.0000   0.0000   0.0000
     0.0000   0.0000   0.0000   0.0000   0.0000   0.0000   0.0000   0.0000
     0.0000   0.0000   0.0000

          k = 0.3333-0.8975 0.4899 ( 14645 PWs)   bands (ev):

   -35.1710 -35.1468 -35.1415 -35.1236 -35.1193 -35.1058 -35.1021 -35.0977
   -35.0915 -35.0869 -35.0816 -35.0634 -13.4270 -13.4057 -13.3952 -13.3846
   -13.3720 -13.3671 -13.3532 -13.3435 -13.3371 -13.3255 -13.3170 -13.3052
   -13.2725 -13.2568 -13.2435 -13.2357 -13.2257 -13.2166 -13.2041 -13.1960
   -13.1905 -13.1842 -13.1612 -13.1465 -13.1382 -13.1327 -13.1184 -13.1101
   -13.1011 -13.0824 -13.0741 -13.0545 -13.0449 -13.0342 -13.0263 -13.0080
     2.9028   2.9922   3.2801   3.3888   4.4811   4.6421   5.3130   5.4984
     6.7644   6.8324   7.0086   7.3693   8.6978   8.7763   8.9351   9.0332
     9.4324   9.5730   9.6315   9.7325   9.8995  10.0252  10.0691  10.1144
    10.4002  10.5887  10.6927  10.7845  10.8973  10.9304  11.0244  11.1103
    11.1893  11.4275  11.4989  11.5479  11.8481  12.0795  12.1285  12.1952
    12.2533  12.5596  12.6207  12.6564  12.7307  13.1011  13.1689  13.3117
    13.7619  14.0769  14.1182  14.2176  14.5927  14.6962  14.7400  14.7856
    15.0557  15.1254  15.1593  15.2267  15.3485  15.4513  15.7163  15.8187
    15.8988  16.0857  16.1347

     occupation numbers 
     1.0000   1.0000   1.0000   1.0000   1.0000   1.0000   1.0000   1.0000
     1.0000   1.0000   1.0000   1.0000   1.0000   1.0000   1.0000   1.0000
     1.0000   1.0000   1.0000   1.0000   1.0000   1.0000   1.0000   1.0000
     1.0000   1.0000   1.0000   1.0000   1.0000   1.0000   1.0000   1.0000
     1.0000   1.0000   1.0000   1.0000   1.0000   1.0000   1.0000   1.0000
     1.0000   1.0000   1.0000   1.0000   1.0000   1.0000   1.0000   1.0000
     1.0000   1.0000   1.0000   1.0000   1.0000   1.0000   1.0000   1.0000
     1.0000   1.0000   1.0000   1.0000   1.0000   1.0000   1.0000   1.0000
     1.0000   1.0000   1.0000   1.0000   1.0000   1.0000   1.0000   1.0000
     1.0000   1.0000   1.0000   1.0000   1.0000   1.0000   1.0000   1.0000
     1.0000   1.0000   1.0000   1.0000   1.0000   1.0000   1.0000   1.0000
     1.0000   1.0000   1.0001   1.0001   1.0006   1.0556   1.0767   1.0459
     0.1093   0.0013   0.0006   0.0001   0.0000   0.0000   0.0000   0.0000
     0.0000   0.0000   0.0000   0.0000   0.0000   0.0000   0.0000   0.0000
     0.0000   0.0000   0.0000

          k = 0.3333-0.8356 0.3266 ( 14645 PWs)   bands (ev):

   -35.1727 -35.1479 -35.1412 -35.1255 -35.1209 -35.1062 -35.1018 -35.0964
   -35.0913 -35.0850 -35.0803 -35.0619 -13.4205 -13.3959 -13.3877 -13.3788
   -13.3717 -13.3593 -13.3495 -13.3405 -13.3326 -13.3266 -13.3127 -13.3054
   -13.2587 -13.2473 -13.2393 -13.2328 -13.2275 -13.2182 -13.2140 -13.1982
   -13.1927 -13.1895 -13.1680 -13.1556 -13.1496 -13.1395 -13.1285 -13.1131
   -13.0995 -13.0918 -13.0725 -13.0618 -13.0471 -13.0301 -13.0241 -13.0040
     2.8677   2.9218   3.2380   3.3147   4.4589   4.5636   5.2909   5.4245
     6.8450   6.8782   7.0263   7.4241   8.6122   8.8570   9.0340   9.1541
     9.4816   9.5512   9.6784   9.8020   9.9638  10.0443  10.0850  10.1103
    10.4243  10.6262  10.7738  10.7942  10.8250  10.9587  11.0451  11.1117
    11.1806  11.3963  11.4437  11.4957  11.8397  12.0046  12.0717  12.1398
    12.2396  12.3586  12.6396  12.6834  12.7778  12.9899  13.0908  13.3582
    13.6955  13.8816  14.2596  14.6143  14.7283  14.7711  14.9482  15.0297
    15.0779  15.1991  15.3016  15.3680  15.5032  15.5420  15.7070  15.9456
    16.0004  16.0768  16.1967

     occupation numbers 
     1.0000   1.0000   1.0000   1.0000   1.0000   1.0000   1.0000   1.0000
     1.0000   1.0000   1.0000   1.0000   1.0000   1.0000   1.0000   1.0000
     1.0000   1.0000   1.0000   1.0000   1.0000   1.0000   1.0000   1.0000
     1.0000   1.0000   1.0000   1.0000   1.0000   1.0000   1.0000   1.0000
     1.0000   1.0000   1.0000   1.0000   1.0000   1.0000   1.0000   1.0000
     1.0000   1.0000   1.0000   1.0000   1.0000   1.0000   1.0000   1.0000
     1.0000   1.0000   1.0000   1.0000   1.0000   1.0000   1.0000   1.0000
     1.0000   1.0000   1.0000   1.0000   1.0000   1.0000   1.0000   1.0000
     1.0000   1.0000   1.0000   1.0000   1.0000   1.0000   1.0000   1.0000
     1.0000   1.0000   1.0000   1.0000   1.0000   1.0000   1.0000   1.0000
     1.0000   1.0000   1.0000   1.0000   1.0000   1.0000   1.0000   1.0000
     1.0000   1.0000   1.0001   1.0002   1.0013   1.0222   1.0520   0.9917
     0.2025   0.0271   0.0000   0.0000   0.0000   0.0000   0.0000   0.0000
     0.0000   0.0000   0.0000   0.0000   0.0000   0.0000   0.0000   0.0000
     0.0000   0.0000   0.0000

          k = 0.3333-0.7737 0.1633 ( 14652 PWs)   bands (ev):

   -35.1739 -35.1488 -35.1410 -35.1267 -35.1218 -35.1066 -35.1015 -35.0957
   -35.0912 -35.0834 -35.0796 -35.0610 -13.4177 -13.3888 -13.3796 -13.3748
   -13.3678 -13.3530 -13.3482 -13.3388 -13.3309 -13.3262 -13.3107 -13.3001
   -13.2529 -13.2494 -13.2417 -13.2338 -13.2268 -13.2217 -13.2131 -13.2007
   -13.1910 -13.1842 -13.1742 -13.1698 -13.1501 -13.1418 -13.1311 -13.1215
   -13.1022 -13.0911 -13.0805 -13.0689 -13.0444 -13.0294 -13.0203 -13.0027
     2.8101   2.9020   3.1923   3.2826   4.4640   4.4907   5.2966   5.3533
     6.8774   6.9598   7.0509   7.3818   8.6866   8.9716   9.0504   9.3045
     9.3823   9.5512   9.7561   9.8601   9.9272  10.0199  10.0703  10.1116
    10.4204  10.6723  10.7914  10.8327  10.9067  11.0314  11.0447  11.1086
    11.1433  11.3430  11.3857  11.4271  11.8228  11.8762  12.0914  12.1303
    12.1955  12.2346  12.6508  12.7008  12.7705  12.9212  13.0784  13.4138
    13.6676  13.7316  14.3890  14.5954  14.7446  14.9117  15.0519  15.1352
    15.2437  15.3295  15.3988  15.5514  15.6313  15.7013  15.8983  15.9600
    15.9974  16.0713  16.2202

     occupation numbers 
     1.0000   1.0000   1.0000   1.0000   1.0000   1.0000   1.0000   1.0000
     1.0000   1.0000   1.0000   1.0000   1.0000   1.0000   1.0000   1.0000
     1.0000   1.0000   1.0000   1.0000   1.0000   1.0000   1.0000   1.0000
     1.0000   1.0000   1.0000   1.0000   1.0000   1.0000   1.0000   1.0000
     1.0000   1.0000   1.0000   1.0000   1.0000   1.0000   1.0000   1.0000
     1.0000   1.0000   1.0000   1.0000   1.0000   1.0000   1.0000   1.0000
     1.0000   1.0000   1.0000   1.0000   1.0000   1.0000   1.0000   1.0000
     1.0000   1.0000   1.0000   1.0000   1.0000   1.0000   1.0000   1.0000
     1.0000   1.0000   1.0000   1.0000   1.0000   1.0000   1.0000   1.0000
     1.0000   1.0000   1.0000   1.0000   1.0000   1.0000   1.0000   1.0000
     1.0000   1.0000   1.0000   1.0000   1.0000   1.0000   1.0000   1.0000
     1.0000   1.0000   1.0001   1.0003   1.0011   1.0102   1.0478   0.8922
     0.2542   0.1467   0.0000   0.0000   0.0000   0.0000   0.0000   0.0000
     0.0000   0.0000   0.0000   0.0000   0.0000   0.0000   0.0000   0.0000
     0.0000   0.0000   0.0000

     the Fermi energy is    13.6030 ev

!    total energy              =   -1328.48095638 Ry
     Harris-Foulkes estimate   =   -1328.48095642 Ry
     estimated scf accuracy    <       0.00000024 Ry

     The total energy is the sum of the following terms:

     one-electron contribution =    -198.61714065 Ry
     hartree contribution      =     186.12822010 Ry
     xc contribution           =    -289.11015031 Ry
     ewald contribution        =   -1026.88514288 Ry
     smearing contrib. (-TS)   =       0.00325735 Ry

     total magnetization       =     0.00 Bohr mag/cell
     absolute magnetization    =     0.00 Bohr mag/cell

     convergence has been achieved in  18 iterations

     Writing output data file aiida.save
 
     init_run     :     42.49s CPU     44.47s WALL (       1 calls)
     electrons    :    995.10s CPU   1052.45s WALL (       1 calls)

     Called by init_run:
     wfcinit      :     19.87s CPU     20.39s WALL (       1 calls)
     wfcinit:atom :      0.10s CPU      0.10s WALL (       6 calls)
     wfcinit:wfcr :     18.31s CPU     18.83s WALL (       6 calls)
     potinit      :      3.71s CPU      3.83s WALL (       1 calls)

     Called by electrons:
     c_bands      :    680.05s CPU    712.07s WALL (      18 calls)
     sum_band     :    207.09s CPU    225.68s WALL (      18 calls)
     v_of_rho     :     35.36s CPU     36.03s WALL (      19 calls)
     v_h          :      0.66s CPU      0.68s WALL (      19 calls)
     v_xc         :     34.70s CPU     35.35s WALL (      19 calls)
     newd         :     70.58s CPU     76.21s WALL (      19 calls)
     mix_rho      :      3.93s CPU      4.26s WALL (      18 calls)

     Called by c_bands:
     init_us_2    :      6.93s CPU      6.95s WALL (     222 calls)
     cegterg      :    566.22s CPU    588.54s WALL (     108 calls)

     Called by sum_band:
     sum_band:bec :      0.11s CPU      0.11s WALL (     108 calls)
     addusdens    :    112.25s CPU    127.87s WALL (      18 calls)

     Called by *egterg:
     h_psi        :    410.83s CPU    422.69s WALL (     514 calls)
     s_psi        :     42.88s CPU     42.89s WALL (     514 calls)
     g_psi        :      1.48s CPU      1.49s WALL (     400 calls)
     cdiaghg      :     51.98s CPU     52.03s WALL (     508 calls)
     cegterg:over :     27.53s CPU     27.69s WALL (     400 calls)
     cegterg:upda :     22.56s CPU     22.57s WALL (     400 calls)
     cegterg:last :      8.70s CPU      8.74s WALL (     108 calls)

     Called by h_psi:
     h_psi:pot    :    408.89s CPU    420.71s WALL (     514 calls)
     h_psi:calbec :     38.76s CPU     38.94s WALL (     514 calls)
     vloc_psi     :    327.16s CPU    338.77s WALL (     514 calls)
     add_vuspsi   :     42.96s CPU     42.98s WALL (     514 calls)

     General routines
     calbec       :     52.86s CPU     53.18s WALL (     622 calls)
     fft          :     13.50s CPU     14.86s WALL (     579 calls)
     ffts         :      0.59s CPU      0.62s WALL (      74 calls)
     fftw         :    315.63s CPU    328.76s WALL (   77454 calls)
     interpolate  :      2.91s CPU      3.03s WALL (      74 calls)
     davcio       :      0.00s CPU      0.96s WALL (       6 calls)
 
     Parallel routines
     fft_scatter  :     91.29s CPU    102.80s WALL (   78107 calls)
 
     PWSCF        : 17m26.84s CPU    19m 5.69s WALL

 
   This run was terminated on:  17: 3:58  20Apr2017            

=------------------------------------------------------------------------------=
   JOB DONE.
=------------------------------------------------------------------------------=
