
     Program PWSCF v.6.1 (svn rev. 13369) starts on 20Apr2017 at 16:56:19 

     This program is part of the open-source Quantum ESPRESSO suite
     for quantum simulation of materials; please cite
         "P. Giannozzi et al., J. Phys.:Condens. Matter 21 395502 (2009);
          URL http://www.quantum-espresso.org", 
     in publications or presentations arising from this work. More details at
     http://www.quantum-espresso.org/quote

     Parallel version (MPI), running on   512 processors
     K-points division:     npool     =     128
     R & G space division:  proc/nbgrp/npool/nimage =       4
     Reading input from pw.in

     Current dimensions of program PWSCF are:
     Max number of different atomic species (ntypx) = 10
     Max number of k-points (npk) =  40000
     Max angular momentum in pseudopotentials (lmaxx) =  3

     Subspace diagonalization in iterative solution of the eigenvalue problem:
     one sub-group per band group will be used
     custom distributed-memory algorithm (size of sub-group:  2*  2 procs)

 
     Parallelization info
     --------------------
     sticks:   dense  smooth     PW     G-vecs:    dense   smooth      PW
     Min        2184    1091    312                82778    29254    4449
     Max        2186    1092    313                82779    29255    4450
     Sum        8739    4367   1249               331113   117017   17797
 


     bravais-lattice index     =            0
     lattice parameter (alat)  =      21.3697  a.u.
     unit-cell volume          =    2870.2376 (a.u.)^3
     number of atoms/cell      =           24
     number of atomic types    =            2
     number of electrons       =       192.00
     number of Kohn-Sham states=          115
     kinetic-energy cutoff     =      45.0000  Ry
     charge density cutoff     =     360.0000  Ry
     convergence threshold     =      2.4E-07
     mixing beta               =       0.3500
     number of iterations used =            8  plain     mixing
     Exchange-correlation      = SLA  PW   PBE  PBE ( 1  4  3  4 0 0)

     celldm(1)=  21.369685  celldm(2)=   0.000000  celldm(3)=   0.000000
     celldm(4)=   0.000000  celldm(5)=   0.000000  celldm(6)=   0.000000

     crystal axes: (cart. coord. in units of alat)
               a(1) = (   1.000000   0.000000   0.000000 )  
               a(2) = (   0.000000   0.624362   0.236591 )  
               a(3) = (   0.000000   0.000000   0.471071 )  

     reciprocal axes: (cart. coord. in units 2 pi/alat)
               b(1) = (  1.000000  0.000000  0.000000 )  
               b(2) = (  0.000000  1.601634  0.000000 )  
               b(3) = (  0.000000 -0.804405  2.122821 )  


     PseudoPot. # 1 for Si read from file:
     ./pseudo/Si.pbe-n-rrkjus_psl.1.0.0.UPF
     MD5 check sum: d928fff27e2cf23ab01de9cd48acd62a
     Pseudo is Ultrasoft + core correction, Zval =  4.0
     Generated using "atomic" code by A. Dal Corso  v.5.1
     Using radial grid of 1141 points,  6 beta functions with: 
                l(1) =   0
                l(2) =   0
                l(3) =   1
                l(4) =   1
                l(5) =   2
                l(6) =   2
     Q(r) pseudized with 0 coefficients 


     PseudoPot. # 2 for Zr read from file:
     ./pseudo/Zr_pbe_v1.uspp.F.UPF
     MD5 check sum: 5db81b1e868ab7776c4564c113de050b
     Pseudo is Ultrasoft + core correction, Zval = 12.0
     Generated by new atomic code, or converted to UPF format
     Using radial grid of  887 points,  6 beta functions with: 
                l(1) =   0
                l(2) =   0
                l(3) =   1
                l(4) =   1
                l(5) =   2
                l(6) =   2
     Q(r) pseudized with  6 coefficients,  rinner =    1.200   1.200   1.200
                                                       1.200   1.200

     atomic species   valence    mass     pseudopotential
        Si             4.00    28.08550     Si( 1.00)
        Zr            12.00    91.22400     Zr( 1.00)

     Starting magnetic structure 
     atomic species   magnetization
        Si           0.000
        Zr           0.417

     No symmetry found


                                    s                        frac. trans.

      isym =  1     identity                                     

 cryst.   s( 1) = (     1          0          0      )
                  (     0          1          0      )
                  (     0          0          1      )

 cart.    s( 1) = (  1.0000000  0.0000000  0.0000000 )
                  (  0.0000000  1.0000000  0.0000000 )
                  (  0.0000000 -0.0000000  1.0000000 )


   Cartesian axes

     site n.     atom                  positions (alat units)
         1           Zr  tau(   1) = (   0.0849136   0.2617535   0.2332711  )
         2           Zr  tau(   2) = (   0.0826137   0.5816343   0.3496644  )
         3           Zr  tau(   3) = (   0.4177076   0.2652574   0.2447223  )
         4           Zr  tau(   4) = (   0.4195508   0.5854738   0.3567491  )
         5           Zr  tau(   5) = (   0.7490816   0.2714019   0.2432517  )
         6           Zr  tau(   6) = (   0.7531469   0.5845841   0.3592668  )
         7           Zr  tau(   7) = (   0.2456702   0.0436282   0.3461261  )
         8           Zr  tau(   8) = (   0.2541896   0.3521749   0.4677362  )
         9           Zr  tau(   9) = (   0.5872608   0.0433430   0.3459169  )
        10           Zr  tau(  10) = (   0.5763432   0.3565062   0.4693231  )
        11           Zr  tau(  11) = (   0.9223878   0.0494515   0.3509161  )
        12           Zr  tau(  12) = (   0.9187433   0.3618918   0.4749010  )
        13           Si  tau(  13) = (   0.2475696   0.1272710   0.1187276  )
        14           Si  tau(  14) = (   0.2501174   0.4481364   0.2364789  )
        15           Si  tau(  15) = (   0.5845975   0.1311824   0.1168144  )
        16           Si  tau(  16) = (   0.5880199   0.4482199   0.2391529  )
        17           Si  tau(  17) = (   0.9108569   0.1304446   0.1198963  )
        18           Si  tau(  18) = (   0.9144195   0.4371156   0.2413626  )
        19           Si  tau(  19) = (   0.0764592   0.1822462   0.4655981  )
        20           Si  tau(  20) = (   0.0886257   0.4908126   0.5881735  )
        21           Si  tau(  21) = (   0.4197308   0.1822714   0.4594581  )
        22           Si  tau(  22) = (   0.4125918   0.4976556   0.5869724  )
        23           Si  tau(  23) = (   0.7479428   0.1873324   0.4659956  )
        24           Si  tau(  24) = (   0.7441195   0.4928691   0.5799690  )

   Crystallographic axes

     site n.     atom                  positions (cryst. coord.)
         1           Zr  tau(   1) = (  0.0849136  0.4192332  0.2846370  )
         2           Zr  tau(   2) = (  0.0826137  0.9315652  0.2744055  )
         3           Zr  tau(   3) = (  0.4177076  0.4248452  0.3061272  )
         4           Zr  tau(   4) = (  0.4195508  0.9377145  0.2863564  )
         5           Zr  tau(   5) = (  0.7490816  0.4346864  0.2980629  )
         6           Zr  tau(   6) = (  0.7531469  0.9362897  0.2924167  )
         7           Zr  tau(   7) = (  0.2456702  0.0698764  0.6996688  )
         8           Zr  tau(   8) = (  0.2541896  0.5640551  0.7096290  )
         9           Zr  tau(   9) = (  0.5872608  0.0694196  0.6994543  )
        10           Zr  tau(  10) = (  0.5763432  0.5709923  0.7095134  )
        11           Zr  tau(  11) = (  0.9223878  0.0792032  0.7051529  )
        12           Zr  tau(  12) = (  0.9187433  0.5796181  0.7170221  )
        13           Si  tau(  13) = (  0.2475696  0.2038415  0.1496600  )
        14           Si  tau(  14) = (  0.2501174  0.7177503  0.1415194  )
        15           Si  tau(  15) = (  0.5845975  0.2101062  0.1424524  )
        16           Si  tau(  16) = (  0.5880199  0.7178842  0.1471284  )
        17           Si  tau(  17) = (  0.9108569  0.2089244  0.1495881  )
        18           Si  tau(  18) = (  0.9144195  0.7000990  0.1607518  )
        19           Si  tau(  19) = (  0.0764592  0.2918917  0.8417816  )
        20           Si  tau(  20) = (  0.0886257  0.7861020  0.8537748  )
        21           Si  tau(  21) = (  0.4197308  0.2919321  0.8287272  )
        22           Si  tau(  22) = (  0.4125918  0.7970621  0.8457206  )
        23           Si  tau(  23) = (  0.7479428  0.3000379  0.8385339  )
        24           Si  tau(  24) = (  0.7441195  0.7893958  0.8347040  )

     number of k points=   352  Marzari-Vanderbilt smearing, width (Ry)=  0.0200
                       cart. coord. in units 2pi/alat
        k(    1) = (   0.0000000   0.0000000   0.0000000), wk =   0.0014245
        k(    2) = (   0.0000000  -0.0618773   0.1632939), wk =   0.0028490
        k(    3) = (   0.0000000  -0.1237546   0.3265878), wk =   0.0028490
        k(    4) = (   0.0000000  -0.1856318   0.4898817), wk =   0.0028490
        k(    5) = (   0.0000000  -0.2475091   0.6531756), wk =   0.0028490
        k(    6) = (   0.0000000  -0.3093864   0.8164694), wk =   0.0028490
        k(    7) = (   0.0000000  -0.3712637   0.9797633), wk =   0.0028490
        k(    8) = (   0.0000000   0.1779593   0.0000000), wk =   0.0028490
        k(    9) = (   0.0000000   0.1160820   0.1632939), wk =   0.0028490
        k(   10) = (   0.0000000   0.0542047   0.3265878), wk =   0.0028490
        k(   11) = (   0.0000000  -0.0076725   0.4898817), wk =   0.0028490
        k(   12) = (   0.0000000  -0.0695498   0.6531756), wk =   0.0028490
        k(   13) = (   0.0000000  -0.1314271   0.8164694), wk =   0.0028490
        k(   14) = (   0.0000000  -0.1933044   0.9797633), wk =   0.0028490
        k(   15) = (   0.0000000   0.5492230  -0.9797633), wk =   0.0028490
        k(   16) = (   0.0000000   0.4873457  -0.8164694), wk =   0.0028490
        k(   17) = (   0.0000000   0.4254684  -0.6531756), wk =   0.0028490
        k(   18) = (   0.0000000   0.3635911  -0.4898817), wk =   0.0028490
        k(   19) = (   0.0000000   0.3017139  -0.3265878), wk =   0.0028490
        k(   20) = (   0.0000000   0.2398366  -0.1632939), wk =   0.0028490
        k(   21) = (   0.0000000   0.3559186   0.0000000), wk =   0.0028490
        k(   22) = (   0.0000000   0.2940413   0.1632939), wk =   0.0028490
        k(   23) = (   0.0000000   0.2321641   0.3265878), wk =   0.0028490
        k(   24) = (   0.0000000   0.1702868   0.4898817), wk =   0.0028490
        k(   25) = (   0.0000000   0.1084095   0.6531756), wk =   0.0028490
        k(   26) = (   0.0000000   0.0465322   0.8164694), wk =   0.0028490
        k(   27) = (   0.0000000  -0.0153451   0.9797633), wk =   0.0028490
        k(   28) = (   0.0000000   0.7271823  -0.9797633), wk =   0.0028490
        k(   29) = (   0.0000000   0.6653050  -0.8164694), wk =   0.0028490
        k(   30) = (   0.0000000   0.6034277  -0.6531756), wk =   0.0028490
        k(   31) = (   0.0000000   0.5415504  -0.4898817), wk =   0.0028490
        k(   32) = (   0.0000000   0.4796732  -0.3265878), wk =   0.0028490
        k(   33) = (   0.0000000   0.4177959  -0.1632939), wk =   0.0028490
        k(   34) = (   0.0000000   0.5338779   0.0000000), wk =   0.0028490
        k(   35) = (   0.0000000   0.4720006   0.1632939), wk =   0.0028490
        k(   36) = (   0.0000000   0.4101234   0.3265878), wk =   0.0028490
        k(   37) = (   0.0000000   0.3482461   0.4898817), wk =   0.0028490
        k(   38) = (   0.0000000   0.2863688   0.6531756), wk =   0.0028490
        k(   39) = (   0.0000000   0.2244915   0.8164694), wk =   0.0028490
        k(   40) = (   0.0000000   0.1626142   0.9797633), wk =   0.0028490
        k(   41) = (   0.0000000   0.9051416  -0.9797633), wk =   0.0028490
        k(   42) = (   0.0000000   0.8432643  -0.8164694), wk =   0.0028490
        k(   43) = (   0.0000000   0.7813870  -0.6531756), wk =   0.0028490
        k(   44) = (   0.0000000   0.7195097  -0.4898817), wk =   0.0028490
        k(   45) = (   0.0000000   0.6576325  -0.3265878), wk =   0.0028490
        k(   46) = (   0.0000000   0.5957552  -0.1632939), wk =   0.0028490
        k(   47) = (   0.0000000   0.7118372   0.0000000), wk =   0.0028490
        k(   48) = (   0.0000000   0.6499599   0.1632939), wk =   0.0028490
        k(   49) = (   0.0000000   0.5880827   0.3265878), wk =   0.0028490
        k(   50) = (   0.0000000   0.5262054   0.4898817), wk =   0.0028490
        k(   51) = (   0.0000000   0.4643281   0.6531756), wk =   0.0028490
        k(   52) = (   0.0000000   0.4024508   0.8164694), wk =   0.0028490
        k(   53) = (   0.0000000   0.3405735   0.9797633), wk =   0.0028490
        k(   54) = (   0.0000000   1.0831009  -0.9797633), wk =   0.0028490
        k(   55) = (   0.0000000   1.0212236  -0.8164694), wk =   0.0028490
        k(   56) = (   0.0000000   0.9593463  -0.6531756), wk =   0.0028490
        k(   57) = (   0.0000000   0.8974690  -0.4898817), wk =   0.0028490
        k(   58) = (   0.0000000   0.8355918  -0.3265878), wk =   0.0028490
        k(   59) = (   0.0000000   0.7737145  -0.1632939), wk =   0.0028490
        k(   60) = (   0.1666667   0.0000000   0.0000000), wk =   0.0028490
        k(   61) = (   0.1666667  -0.0618773   0.1632939), wk =   0.0028490
        k(   62) = (   0.1666667  -0.1237546   0.3265878), wk =   0.0028490
        k(   63) = (   0.1666667  -0.1856318   0.4898817), wk =   0.0028490
        k(   64) = (   0.1666667  -0.2475091   0.6531756), wk =   0.0028490
        k(   65) = (   0.1666667  -0.3093864   0.8164694), wk =   0.0028490
        k(   66) = (   0.1666667  -0.3712637   0.9797633), wk =   0.0028490
        k(   67) = (   0.1666667   0.1779593   0.0000000), wk =   0.0028490
        k(   68) = (   0.1666667   0.1160820   0.1632939), wk =   0.0028490
        k(   69) = (   0.1666667   0.0542047   0.3265878), wk =   0.0028490
        k(   70) = (   0.1666667  -0.0076725   0.4898817), wk =   0.0028490
        k(   71) = (   0.1666667  -0.0695498   0.6531756), wk =   0.0028490
        k(   72) = (   0.1666667  -0.1314271   0.8164694), wk =   0.0028490
        k(   73) = (   0.1666667  -0.1933044   0.9797633), wk =   0.0028490
        k(   74) = (   0.1666667   0.5492230  -0.9797633), wk =   0.0028490
        k(   75) = (   0.1666667   0.4873457  -0.8164694), wk =   0.0028490
        k(   76) = (   0.1666667   0.4254684  -0.6531756), wk =   0.0028490
        k(   77) = (   0.1666667   0.3635911  -0.4898817), wk =   0.0028490
        k(   78) = (   0.1666667   0.3017139  -0.3265878), wk =   0.0028490
        k(   79) = (   0.1666667   0.2398366  -0.1632939), wk =   0.0028490
        k(   80) = (   0.1666667   0.3559186   0.0000000), wk =   0.0028490
        k(   81) = (   0.1666667   0.2940413   0.1632939), wk =   0.0028490
        k(   82) = (   0.1666667   0.2321641   0.3265878), wk =   0.0028490
        k(   83) = (   0.1666667   0.1702868   0.4898817), wk =   0.0028490
        k(   84) = (   0.1666667   0.1084095   0.6531756), wk =   0.0028490
        k(   85) = (   0.1666667   0.0465322   0.8164694), wk =   0.0028490
        k(   86) = (   0.1666667  -0.0153451   0.9797633), wk =   0.0028490
        k(   87) = (   0.1666667   0.7271823  -0.9797633), wk =   0.0028490
        k(   88) = (   0.1666667   0.6653050  -0.8164694), wk =   0.0028490
        k(   89) = (   0.1666667   0.6034277  -0.6531756), wk =   0.0028490
        k(   90) = (   0.1666667   0.5415504  -0.4898817), wk =   0.0028490
        k(   91) = (   0.1666667   0.4796732  -0.3265878), wk =   0.0028490
        k(   92) = (   0.1666667   0.4177959  -0.1632939), wk =   0.0028490
        k(   93) = (   0.1666667   0.5338779   0.0000000), wk =   0.0028490
        k(   94) = (   0.1666667   0.4720006   0.1632939), wk =   0.0028490
        k(   95) = (   0.1666667   0.4101234   0.3265878), wk =   0.0028490
        k(   96) = (   0.1666667   0.3482461   0.4898817), wk =   0.0028490
        k(   97) = (   0.1666667   0.2863688   0.6531756), wk =   0.0028490
        k(   98) = (   0.1666667   0.2244915   0.8164694), wk =   0.0028490
        k(   99) = (   0.1666667   0.1626142   0.9797633), wk =   0.0028490
        k(  100) = (   0.1666667   0.9051416  -0.9797633), wk =   0.0028490
        k(  101) = (   0.1666667   0.8432643  -0.8164694), wk =   0.0028490
        k(  102) = (   0.1666667   0.7813870  -0.6531756), wk =   0.0028490
        k(  103) = (   0.1666667   0.7195097  -0.4898817), wk =   0.0028490
        k(  104) = (   0.1666667   0.6576325  -0.3265878), wk =   0.0028490
        k(  105) = (   0.1666667   0.5957552  -0.1632939), wk =   0.0028490
        k(  106) = (   0.1666667   0.7118372   0.0000000), wk =   0.0028490
        k(  107) = (   0.1666667   0.6499599   0.1632939), wk =   0.0028490
        k(  108) = (   0.1666667   0.5880827   0.3265878), wk =   0.0028490
        k(  109) = (   0.1666667   0.5262054   0.4898817), wk =   0.0028490
        k(  110) = (   0.1666667   0.4643281   0.6531756), wk =   0.0028490
        k(  111) = (   0.1666667   0.4024508   0.8164694), wk =   0.0028490
        k(  112) = (   0.1666667   0.3405735   0.9797633), wk =   0.0028490
        k(  113) = (   0.1666667   1.0831009  -0.9797633), wk =   0.0028490
        k(  114) = (   0.1666667   1.0212236  -0.8164694), wk =   0.0028490
        k(  115) = (   0.1666667   0.9593463  -0.6531756), wk =   0.0028490
        k(  116) = (   0.1666667   0.8974690  -0.4898817), wk =   0.0028490
        k(  117) = (   0.1666667   0.8355918  -0.3265878), wk =   0.0028490
        k(  118) = (   0.1666667   0.7737145  -0.1632939), wk =   0.0028490
        k(  119) = (   0.3333333   0.0000000   0.0000000), wk =   0.0028490
        k(  120) = (   0.3333333  -0.0618773   0.1632939), wk =   0.0028490
        k(  121) = (   0.3333333  -0.1237546   0.3265878), wk =   0.0028490
        k(  122) = (   0.3333333  -0.1856318   0.4898817), wk =   0.0028490
        k(  123) = (   0.3333333  -0.2475091   0.6531756), wk =   0.0028490
        k(  124) = (   0.3333333  -0.3093864   0.8164694), wk =   0.0028490
        k(  125) = (   0.3333333  -0.3712637   0.9797633), wk =   0.0028490
        k(  126) = (   0.3333333   0.1779593   0.0000000), wk =   0.0028490
        k(  127) = (   0.3333333   0.1160820   0.1632939), wk =   0.0028490
        k(  128) = (   0.3333333   0.0542047   0.3265878), wk =   0.0028490
        k(  129) = (   0.3333333  -0.0076725   0.4898817), wk =   0.0028490
        k(  130) = (   0.3333333  -0.0695498   0.6531756), wk =   0.0028490
        k(  131) = (   0.3333333  -0.1314271   0.8164694), wk =   0.0028490
        k(  132) = (   0.3333333  -0.1933044   0.9797633), wk =   0.0028490
        k(  133) = (   0.3333333   0.5492230  -0.9797633), wk =   0.0028490
        k(  134) = (   0.3333333   0.4873457  -0.8164694), wk =   0.0028490
        k(  135) = (   0.3333333   0.4254684  -0.6531756), wk =   0.0028490
        k(  136) = (   0.3333333   0.3635911  -0.4898817), wk =   0.0028490
        k(  137) = (   0.3333333   0.3017139  -0.3265878), wk =   0.0028490
        k(  138) = (   0.3333333   0.2398366  -0.1632939), wk =   0.0028490
        k(  139) = (   0.3333333   0.3559186   0.0000000), wk =   0.0028490
        k(  140) = (   0.3333333   0.2940413   0.1632939), wk =   0.0028490
        k(  141) = (   0.3333333   0.2321641   0.3265878), wk =   0.0028490
        k(  142) = (   0.3333333   0.1702868   0.4898817), wk =   0.0028490
        k(  143) = (   0.3333333   0.1084095   0.6531756), wk =   0.0028490
        k(  144) = (   0.3333333   0.0465322   0.8164694), wk =   0.0028490
        k(  145) = (   0.3333333  -0.0153451   0.9797633), wk =   0.0028490
        k(  146) = (   0.3333333   0.7271823  -0.9797633), wk =   0.0028490
        k(  147) = (   0.3333333   0.6653050  -0.8164694), wk =   0.0028490
        k(  148) = (   0.3333333   0.6034277  -0.6531756), wk =   0.0028490
        k(  149) = (   0.3333333   0.5415504  -0.4898817), wk =   0.0028490
        k(  150) = (   0.3333333   0.4796732  -0.3265878), wk =   0.0028490
        k(  151) = (   0.3333333   0.4177959  -0.1632939), wk =   0.0028490
        k(  152) = (   0.3333333   0.5338779   0.0000000), wk =   0.0028490
        k(  153) = (   0.3333333   0.4720006   0.1632939), wk =   0.0028490
        k(  154) = (   0.3333333   0.4101234   0.3265878), wk =   0.0028490
        k(  155) = (   0.3333333   0.3482461   0.4898817), wk =   0.0028490
        k(  156) = (   0.3333333   0.2863688   0.6531756), wk =   0.0028490
        k(  157) = (   0.3333333   0.2244915   0.8164694), wk =   0.0028490
        k(  158) = (   0.3333333   0.1626142   0.9797633), wk =   0.0028490
        k(  159) = (   0.3333333   0.9051416  -0.9797633), wk =   0.0028490
        k(  160) = (   0.3333333   0.8432643  -0.8164694), wk =   0.0028490
        k(  161) = (   0.3333333   0.7813870  -0.6531756), wk =   0.0028490
        k(  162) = (   0.3333333   0.7195097  -0.4898817), wk =   0.0028490
        k(  163) = (   0.3333333   0.6576325  -0.3265878), wk =   0.0028490
        k(  164) = (   0.3333333   0.5957552  -0.1632939), wk =   0.0028490
        k(  165) = (   0.3333333   0.7118372   0.0000000), wk =   0.0028490
        k(  166) = (   0.3333333   0.6499599   0.1632939), wk =   0.0028490
        k(  167) = (   0.3333333   0.5880827   0.3265878), wk =   0.0028490
        k(  168) = (   0.3333333   0.5262054   0.4898817), wk =   0.0028490
        k(  169) = (   0.3333333   0.4643281   0.6531756), wk =   0.0028490
        k(  170) = (   0.3333333   0.4024508   0.8164694), wk =   0.0028490
        k(  171) = (   0.3333333   0.3405735   0.9797633), wk =   0.0028490
        k(  172) = (   0.3333333   1.0831009  -0.9797633), wk =   0.0028490
        k(  173) = (   0.3333333   1.0212236  -0.8164694), wk =   0.0028490
        k(  174) = (   0.3333333   0.9593463  -0.6531756), wk =   0.0028490
        k(  175) = (   0.3333333   0.8974690  -0.4898817), wk =   0.0028490
        k(  176) = (   0.3333333   0.8355918  -0.3265878), wk =   0.0028490
        k(  177) = (   0.3333333   0.7737145  -0.1632939), wk =   0.0028490
        k(  178) = (  -0.5000000   0.0000000   0.0000000), wk =   0.0014245
        k(  179) = (  -0.5000000  -0.0618773   0.1632939), wk =   0.0028490
        k(  180) = (  -0.5000000  -0.1237546   0.3265878), wk =   0.0028490
        k(  181) = (  -0.5000000  -0.1856318   0.4898817), wk =   0.0028490
        k(  182) = (  -0.5000000  -0.2475091   0.6531756), wk =   0.0028490
        k(  183) = (  -0.5000000  -0.3093864   0.8164694), wk =   0.0028490
        k(  184) = (  -0.5000000  -0.3712637   0.9797633), wk =   0.0028490
        k(  185) = (  -0.5000000   0.1779593   0.0000000), wk =   0.0028490
        k(  186) = (  -0.5000000   0.1160820   0.1632939), wk =   0.0028490
        k(  187) = (  -0.5000000   0.0542047   0.3265878), wk =   0.0028490
        k(  188) = (  -0.5000000  -0.0076725   0.4898817), wk =   0.0028490
        k(  189) = (  -0.5000000  -0.0695498   0.6531756), wk =   0.0028490
        k(  190) = (  -0.5000000  -0.1314271   0.8164694), wk =   0.0028490
        k(  191) = (  -0.5000000  -0.1933044   0.9797633), wk =   0.0028490
        k(  192) = (  -0.5000000   0.5492230  -0.9797633), wk =   0.0028490
        k(  193) = (  -0.5000000   0.4873457  -0.8164694), wk =   0.0028490
        k(  194) = (  -0.5000000   0.4254684  -0.6531756), wk =   0.0028490
        k(  195) = (  -0.5000000   0.3635911  -0.4898817), wk =   0.0028490
        k(  196) = (  -0.5000000   0.3017139  -0.3265878), wk =   0.0028490
        k(  197) = (  -0.5000000   0.2398366  -0.1632939), wk =   0.0028490
        k(  198) = (  -0.5000000   0.3559186   0.0000000), wk =   0.0028490
        k(  199) = (  -0.5000000   0.2940413   0.1632939), wk =   0.0028490
        k(  200) = (  -0.5000000   0.2321641   0.3265878), wk =   0.0028490
        k(  201) = (  -0.5000000   0.1702868   0.4898817), wk =   0.0028490
        k(  202) = (  -0.5000000   0.1084095   0.6531756), wk =   0.0028490
        k(  203) = (  -0.5000000   0.0465322   0.8164694), wk =   0.0028490
        k(  204) = (  -0.5000000  -0.0153451   0.9797633), wk =   0.0028490
        k(  205) = (  -0.5000000   0.7271823  -0.9797633), wk =   0.0028490
        k(  206) = (  -0.5000000   0.6653050  -0.8164694), wk =   0.0028490
        k(  207) = (  -0.5000000   0.6034277  -0.6531756), wk =   0.0028490
        k(  208) = (  -0.5000000   0.5415504  -0.4898817), wk =   0.0028490
        k(  209) = (  -0.5000000   0.4796732  -0.3265878), wk =   0.0028490
        k(  210) = (  -0.5000000   0.4177959  -0.1632939), wk =   0.0028490
        k(  211) = (  -0.5000000   0.5338779   0.0000000), wk =   0.0028490
        k(  212) = (  -0.5000000   0.4720006   0.1632939), wk =   0.0028490
        k(  213) = (  -0.5000000   0.4101234   0.3265878), wk =   0.0028490
        k(  214) = (  -0.5000000   0.3482461   0.4898817), wk =   0.0028490
        k(  215) = (  -0.5000000   0.2863688   0.6531756), wk =   0.0028490
        k(  216) = (  -0.5000000   0.2244915   0.8164694), wk =   0.0028490
        k(  217) = (  -0.5000000   0.1626142   0.9797633), wk =   0.0028490
        k(  218) = (  -0.5000000   0.9051416  -0.9797633), wk =   0.0028490
        k(  219) = (  -0.5000000   0.8432643  -0.8164694), wk =   0.0028490
        k(  220) = (  -0.5000000   0.7813870  -0.6531756), wk =   0.0028490
        k(  221) = (  -0.5000000   0.7195097  -0.4898817), wk =   0.0028490
        k(  222) = (  -0.5000000   0.6576325  -0.3265878), wk =   0.0028490
        k(  223) = (  -0.5000000   0.5957552  -0.1632939), wk =   0.0028490
        k(  224) = (  -0.5000000   0.7118372   0.0000000), wk =   0.0028490
        k(  225) = (  -0.5000000   0.6499599   0.1632939), wk =   0.0028490
        k(  226) = (  -0.5000000   0.5880827   0.3265878), wk =   0.0028490
        k(  227) = (  -0.5000000   0.5262054   0.4898817), wk =   0.0028490
        k(  228) = (  -0.5000000   0.4643281   0.6531756), wk =   0.0028490
        k(  229) = (  -0.5000000   0.4024508   0.8164694), wk =   0.0028490
        k(  230) = (  -0.5000000   0.3405735   0.9797633), wk =   0.0028490
        k(  231) = (  -0.5000000   1.0831009  -0.9797633), wk =   0.0028490
        k(  232) = (  -0.5000000   1.0212236  -0.8164694), wk =   0.0028490
        k(  233) = (  -0.5000000   0.9593463  -0.6531756), wk =   0.0028490
        k(  234) = (  -0.5000000   0.8974690  -0.4898817), wk =   0.0028490
        k(  235) = (  -0.5000000   0.8355918  -0.3265878), wk =   0.0028490
        k(  236) = (  -0.5000000   0.7737145  -0.1632939), wk =   0.0028490
        k(  237) = (   0.1666667   0.0618773  -0.1632939), wk =   0.0028490
        k(  238) = (   0.1666667   0.1237546  -0.3265878), wk =   0.0028490
        k(  239) = (   0.1666667   0.1856318  -0.4898817), wk =   0.0028490
        k(  240) = (   0.1666667   0.2475091  -0.6531756), wk =   0.0028490
        k(  241) = (   0.1666667   0.3093864  -0.8164694), wk =   0.0028490
        k(  242) = (   0.1666667   0.3712637  -0.9797633), wk =   0.0028490
        k(  243) = (   0.1666667  -0.1779593   0.0000000), wk =   0.0028490
        k(  244) = (   0.1666667  -0.1160820  -0.1632939), wk =   0.0028490
        k(  245) = (   0.1666667  -0.0542047  -0.3265878), wk =   0.0028490
        k(  246) = (   0.1666667   0.0076725  -0.4898817), wk =   0.0028490
        k(  247) = (   0.1666667   0.0695498  -0.6531756), wk =   0.0028490
        k(  248) = (   0.1666667   0.1314271  -0.8164694), wk =   0.0028490
        k(  249) = (   0.1666667   0.1933044  -0.9797633), wk =   0.0028490
        k(  250) = (   0.1666667  -0.5492230   0.9797633), wk =   0.0028490
        k(  251) = (   0.1666667  -0.4873457   0.8164694), wk =   0.0028490
        k(  252) = (   0.1666667  -0.4254684   0.6531756), wk =   0.0028490
        k(  253) = (   0.1666667  -0.3635911   0.4898817), wk =   0.0028490
        k(  254) = (   0.1666667  -0.3017139   0.3265878), wk =   0.0028490
        k(  255) = (   0.1666667  -0.2398366   0.1632939), wk =   0.0028490
        k(  256) = (   0.1666667  -0.3559186   0.0000000), wk =   0.0028490
        k(  257) = (   0.1666667  -0.2940413  -0.1632939), wk =   0.0028490
        k(  258) = (   0.1666667  -0.2321641  -0.3265878), wk =   0.0028490
        k(  259) = (   0.1666667  -0.1702868  -0.4898817), wk =   0.0028490
        k(  260) = (   0.1666667  -0.1084095  -0.6531756), wk =   0.0028490
        k(  261) = (   0.1666667  -0.0465322  -0.8164694), wk =   0.0028490
        k(  262) = (   0.1666667   0.0153451  -0.9797633), wk =   0.0028490
        k(  263) = (   0.1666667  -0.7271823   0.9797633), wk =   0.0028490
        k(  264) = (   0.1666667  -0.6653050   0.8164694), wk =   0.0028490
        k(  265) = (   0.1666667  -0.6034277   0.6531756), wk =   0.0028490
        k(  266) = (   0.1666667  -0.5415504   0.4898817), wk =   0.0028490
        k(  267) = (   0.1666667  -0.4796732   0.3265878), wk =   0.0028490
        k(  268) = (   0.1666667  -0.4177959   0.1632939), wk =   0.0028490
        k(  269) = (   0.1666667  -0.5338779   0.0000000), wk =   0.0028490
        k(  270) = (   0.1666667  -0.4720006  -0.1632939), wk =   0.0028490
        k(  271) = (   0.1666667  -0.4101234  -0.3265878), wk =   0.0028490
        k(  272) = (   0.1666667  -0.3482461  -0.4898817), wk =   0.0028490
        k(  273) = (   0.1666667  -0.2863688  -0.6531756), wk =   0.0028490
        k(  274) = (   0.1666667  -0.2244915  -0.8164694), wk =   0.0028490
        k(  275) = (   0.1666667  -0.1626142  -0.9797633), wk =   0.0028490
        k(  276) = (   0.1666667  -0.9051416   0.9797633), wk =   0.0028490
        k(  277) = (   0.1666667  -0.8432643   0.8164694), wk =   0.0028490
        k(  278) = (   0.1666667  -0.7813870   0.6531756), wk =   0.0028490
        k(  279) = (   0.1666667  -0.7195097   0.4898817), wk =   0.0028490
        k(  280) = (   0.1666667  -0.6576325   0.3265878), wk =   0.0028490
        k(  281) = (   0.1666667  -0.5957552   0.1632939), wk =   0.0028490
        k(  282) = (   0.1666667  -0.7118372   0.0000000), wk =   0.0028490
        k(  283) = (   0.1666667  -0.6499599  -0.1632939), wk =   0.0028490
        k(  284) = (   0.1666667  -0.5880827  -0.3265878), wk =   0.0028490
        k(  285) = (   0.1666667  -0.5262054  -0.4898817), wk =   0.0028490
        k(  286) = (   0.1666667  -0.4643281  -0.6531756), wk =   0.0028490
        k(  287) = (   0.1666667  -0.4024508  -0.8164694), wk =   0.0028490
        k(  288) = (   0.1666667  -0.3405735  -0.9797633), wk =   0.0028490
        k(  289) = (   0.1666667  -1.0831009   0.9797633), wk =   0.0028490
        k(  290) = (   0.1666667  -1.0212236   0.8164694), wk =   0.0028490
        k(  291) = (   0.1666667  -0.9593463   0.6531756), wk =   0.0028490
        k(  292) = (   0.1666667  -0.8974690   0.4898817), wk =   0.0028490
        k(  293) = (   0.1666667  -0.8355918   0.3265878), wk =   0.0028490
        k(  294) = (   0.1666667  -0.7737145   0.1632939), wk =   0.0028490
        k(  295) = (   0.3333333   0.0618773  -0.1632939), wk =   0.0028490
        k(  296) = (   0.3333333   0.1237546  -0.3265878), wk =   0.0028490
        k(  297) = (   0.3333333   0.1856318  -0.4898817), wk =   0.0028490
        k(  298) = (   0.3333333   0.2475091  -0.6531756), wk =   0.0028490
        k(  299) = (   0.3333333   0.3093864  -0.8164694), wk =   0.0028490
        k(  300) = (   0.3333333   0.3712637  -0.9797633), wk =   0.0028490
        k(  301) = (   0.3333333  -0.1779593   0.0000000), wk =   0.0028490
        k(  302) = (   0.3333333  -0.1160820  -0.1632939), wk =   0.0028490
        k(  303) = (   0.3333333  -0.0542047  -0.3265878), wk =   0.0028490
        k(  304) = (   0.3333333   0.0076725  -0.4898817), wk =   0.0028490
        k(  305) = (   0.3333333   0.0695498  -0.6531756), wk =   0.0028490
        k(  306) = (   0.3333333   0.1314271  -0.8164694), wk =   0.0028490
        k(  307) = (   0.3333333   0.1933044  -0.9797633), wk =   0.0028490
        k(  308) = (   0.3333333  -0.5492230   0.9797633), wk =   0.0028490
        k(  309) = (   0.3333333  -0.4873457   0.8164694), wk =   0.0028490
        k(  310) = (   0.3333333  -0.4254684   0.6531756), wk =   0.0028490
        k(  311) = (   0.3333333  -0.3635911   0.4898817), wk =   0.0028490
        k(  312) = (   0.3333333  -0.3017139   0.3265878), wk =   0.0028490
        k(  313) = (   0.3333333  -0.2398366   0.1632939), wk =   0.0028490
        k(  314) = (   0.3333333  -0.3559186   0.0000000), wk =   0.0028490
        k(  315) = (   0.3333333  -0.2940413  -0.1632939), wk =   0.0028490
        k(  316) = (   0.3333333  -0.2321641  -0.3265878), wk =   0.0028490
        k(  317) = (   0.3333333  -0.1702868  -0.4898817), wk =   0.0028490
        k(  318) = (   0.3333333  -0.1084095  -0.6531756), wk =   0.0028490
        k(  319) = (   0.3333333  -0.0465322  -0.8164694), wk =   0.0028490
        k(  320) = (   0.3333333   0.0153451  -0.9797633), wk =   0.0028490
        k(  321) = (   0.3333333  -0.7271823   0.9797633), wk =   0.0028490
        k(  322) = (   0.3333333  -0.6653050   0.8164694), wk =   0.0028490
        k(  323) = (   0.3333333  -0.6034277   0.6531756), wk =   0.0028490
        k(  324) = (   0.3333333  -0.5415504   0.4898817), wk =   0.0028490
        k(  325) = (   0.3333333  -0.4796732   0.3265878), wk =   0.0028490
        k(  326) = (   0.3333333  -0.4177959   0.1632939), wk =   0.0028490
        k(  327) = (   0.3333333  -0.5338779   0.0000000), wk =   0.0028490
        k(  328) = (   0.3333333  -0.4720006  -0.1632939), wk =   0.0028490
        k(  329) = (   0.3333333  -0.4101234  -0.3265878), wk =   0.0028490
        k(  330) = (   0.3333333  -0.3482461  -0.4898817), wk =   0.0028490
        k(  331) = (   0.3333333  -0.2863688  -0.6531756), wk =   0.0028490
        k(  332) = (   0.3333333  -0.2244915  -0.8164694), wk =   0.0028490
        k(  333) = (   0.3333333  -0.1626142  -0.9797633), wk =   0.0028490
        k(  334) = (   0.3333333  -0.9051416   0.9797633), wk =   0.0028490
        k(  335) = (   0.3333333  -0.8432643   0.8164694), wk =   0.0028490
        k(  336) = (   0.3333333  -0.7813870   0.6531756), wk =   0.0028490
        k(  337) = (   0.3333333  -0.7195097   0.4898817), wk =   0.0028490
        k(  338) = (   0.3333333  -0.6576325   0.3265878), wk =   0.0028490
        k(  339) = (   0.3333333  -0.5957552   0.1632939), wk =   0.0028490
        k(  340) = (   0.3333333  -0.7118372   0.0000000), wk =   0.0028490
        k(  341) = (   0.3333333  -0.6499599  -0.1632939), wk =   0.0028490
        k(  342) = (   0.3333333  -0.5880827  -0.3265878), wk =   0.0028490
        k(  343) = (   0.3333333  -0.5262054  -0.4898817), wk =   0.0028490
        k(  344) = (   0.3333333  -0.4643281  -0.6531756), wk =   0.0028490
        k(  345) = (   0.3333333  -0.4024508  -0.8164694), wk =   0.0028490
        k(  346) = (   0.3333333  -0.3405735  -0.9797633), wk =   0.0028490
        k(  347) = (   0.3333333  -1.0831009   0.9797633), wk =   0.0028490
        k(  348) = (   0.3333333  -1.0212236   0.8164694), wk =   0.0028490
        k(  349) = (   0.3333333  -0.9593463   0.6531756), wk =   0.0028490
        k(  350) = (   0.3333333  -0.8974690   0.4898817), wk =   0.0028490
        k(  351) = (   0.3333333  -0.8355918   0.3265878), wk =   0.0028490
        k(  352) = (   0.3333333  -0.7737145   0.1632939), wk =   0.0028490

                       cryst. coord.
        k(    1) = (   0.0000000   0.0000000   0.0000000), wk =   0.0014245
        k(    2) = (   0.0000000   0.0000000   0.0769231), wk =   0.0028490
        k(    3) = (   0.0000000   0.0000000   0.1538462), wk =   0.0028490
        k(    4) = (   0.0000000   0.0000000   0.2307692), wk =   0.0028490
        k(    5) = (   0.0000000   0.0000000   0.3076923), wk =   0.0028490
        k(    6) = (   0.0000000   0.0000000   0.3846154), wk =   0.0028490
        k(    7) = (   0.0000000   0.0000000   0.4615385), wk =   0.0028490
        k(    8) = (   0.0000000   0.1111111   0.0000000), wk =   0.0028490
        k(    9) = (   0.0000000   0.1111111   0.0769231), wk =   0.0028490
        k(   10) = (   0.0000000   0.1111111   0.1538462), wk =   0.0028490
        k(   11) = (   0.0000000   0.1111111   0.2307692), wk =   0.0028490
        k(   12) = (   0.0000000   0.1111111   0.3076923), wk =   0.0028490
        k(   13) = (   0.0000000   0.1111111   0.3846154), wk =   0.0028490
        k(   14) = (   0.0000000   0.1111111   0.4615385), wk =   0.0028490
        k(   15) = (   0.0000000   0.1111111  -0.4615385), wk =   0.0028490
        k(   16) = (   0.0000000   0.1111111  -0.3846154), wk =   0.0028490
        k(   17) = (   0.0000000   0.1111111  -0.3076923), wk =   0.0028490
        k(   18) = (   0.0000000   0.1111111  -0.2307692), wk =   0.0028490
        k(   19) = (   0.0000000   0.1111111  -0.1538462), wk =   0.0028490
        k(   20) = (   0.0000000   0.1111111  -0.0769231), wk =   0.0028490
        k(   21) = (   0.0000000   0.2222222   0.0000000), wk =   0.0028490
        k(   22) = (   0.0000000   0.2222222   0.0769231), wk =   0.0028490
        k(   23) = (   0.0000000   0.2222222   0.1538462), wk =   0.0028490
        k(   24) = (   0.0000000   0.2222222   0.2307692), wk =   0.0028490
        k(   25) = (   0.0000000   0.2222222   0.3076923), wk =   0.0028490
        k(   26) = (   0.0000000   0.2222222   0.3846154), wk =   0.0028490
        k(   27) = (   0.0000000   0.2222222   0.4615385), wk =   0.0028490
        k(   28) = (   0.0000000   0.2222222  -0.4615385), wk =   0.0028490
        k(   29) = (   0.0000000   0.2222222  -0.3846154), wk =   0.0028490
        k(   30) = (   0.0000000   0.2222222  -0.3076923), wk =   0.0028490
        k(   31) = (   0.0000000   0.2222222  -0.2307692), wk =   0.0028490
        k(   32) = (   0.0000000   0.2222222  -0.1538462), wk =   0.0028490
        k(   33) = (   0.0000000   0.2222222  -0.0769231), wk =   0.0028490
        k(   34) = (   0.0000000   0.3333333   0.0000000), wk =   0.0028490
        k(   35) = (   0.0000000   0.3333333   0.0769231), wk =   0.0028490
        k(   36) = (   0.0000000   0.3333333   0.1538462), wk =   0.0028490
        k(   37) = (   0.0000000   0.3333333   0.2307692), wk =   0.0028490
        k(   38) = (   0.0000000   0.3333333   0.3076923), wk =   0.0028490
        k(   39) = (   0.0000000   0.3333333   0.3846154), wk =   0.0028490
        k(   40) = (   0.0000000   0.3333333   0.4615385), wk =   0.0028490
        k(   41) = (   0.0000000   0.3333333  -0.4615385), wk =   0.0028490
        k(   42) = (   0.0000000   0.3333333  -0.3846154), wk =   0.0028490
        k(   43) = (   0.0000000   0.3333333  -0.3076923), wk =   0.0028490
        k(   44) = (   0.0000000   0.3333333  -0.2307692), wk =   0.0028490
        k(   45) = (   0.0000000   0.3333333  -0.1538462), wk =   0.0028490
        k(   46) = (   0.0000000   0.3333333  -0.0769231), wk =   0.0028490
        k(   47) = (   0.0000000   0.4444444   0.0000000), wk =   0.0028490
        k(   48) = (   0.0000000   0.4444444   0.0769231), wk =   0.0028490
        k(   49) = (   0.0000000   0.4444444   0.1538462), wk =   0.0028490
        k(   50) = (   0.0000000   0.4444444   0.2307692), wk =   0.0028490
        k(   51) = (   0.0000000   0.4444444   0.3076923), wk =   0.0028490
        k(   52) = (   0.0000000   0.4444444   0.3846154), wk =   0.0028490
        k(   53) = (   0.0000000   0.4444444   0.4615385), wk =   0.0028490
        k(   54) = (   0.0000000   0.4444444  -0.4615385), wk =   0.0028490
        k(   55) = (   0.0000000   0.4444444  -0.3846154), wk =   0.0028490
        k(   56) = (   0.0000000   0.4444444  -0.3076923), wk =   0.0028490
        k(   57) = (   0.0000000   0.4444444  -0.2307692), wk =   0.0028490
        k(   58) = (   0.0000000   0.4444444  -0.1538462), wk =   0.0028490
        k(   59) = (   0.0000000   0.4444444  -0.0769231), wk =   0.0028490
        k(   60) = (   0.1666667   0.0000000   0.0000000), wk =   0.0028490
        k(   61) = (   0.1666667   0.0000000   0.0769231), wk =   0.0028490
        k(   62) = (   0.1666667   0.0000000   0.1538462), wk =   0.0028490
        k(   63) = (   0.1666667   0.0000000   0.2307692), wk =   0.0028490
        k(   64) = (   0.1666667   0.0000000   0.3076923), wk =   0.0028490
        k(   65) = (   0.1666667   0.0000000   0.3846154), wk =   0.0028490
        k(   66) = (   0.1666667   0.0000000   0.4615385), wk =   0.0028490
        k(   67) = (   0.1666667   0.1111111   0.0000000), wk =   0.0028490
        k(   68) = (   0.1666667   0.1111111   0.0769231), wk =   0.0028490
        k(   69) = (   0.1666667   0.1111111   0.1538462), wk =   0.0028490
        k(   70) = (   0.1666667   0.1111111   0.2307692), wk =   0.0028490
        k(   71) = (   0.1666667   0.1111111   0.3076923), wk =   0.0028490
        k(   72) = (   0.1666667   0.1111111   0.3846154), wk =   0.0028490
        k(   73) = (   0.1666667   0.1111111   0.4615385), wk =   0.0028490
        k(   74) = (   0.1666667   0.1111111  -0.4615385), wk =   0.0028490
        k(   75) = (   0.1666667   0.1111111  -0.3846154), wk =   0.0028490
        k(   76) = (   0.1666667   0.1111111  -0.3076923), wk =   0.0028490
        k(   77) = (   0.1666667   0.1111111  -0.2307692), wk =   0.0028490
        k(   78) = (   0.1666667   0.1111111  -0.1538462), wk =   0.0028490
        k(   79) = (   0.1666667   0.1111111  -0.0769231), wk =   0.0028490
        k(   80) = (   0.1666667   0.2222222   0.0000000), wk =   0.0028490
        k(   81) = (   0.1666667   0.2222222   0.0769231), wk =   0.0028490
        k(   82) = (   0.1666667   0.2222222   0.1538462), wk =   0.0028490
        k(   83) = (   0.1666667   0.2222222   0.2307692), wk =   0.0028490
        k(   84) = (   0.1666667   0.2222222   0.3076923), wk =   0.0028490
        k(   85) = (   0.1666667   0.2222222   0.3846154), wk =   0.0028490
        k(   86) = (   0.1666667   0.2222222   0.4615385), wk =   0.0028490
        k(   87) = (   0.1666667   0.2222222  -0.4615385), wk =   0.0028490
        k(   88) = (   0.1666667   0.2222222  -0.3846154), wk =   0.0028490
        k(   89) = (   0.1666667   0.2222222  -0.3076923), wk =   0.0028490
        k(   90) = (   0.1666667   0.2222222  -0.2307692), wk =   0.0028490
        k(   91) = (   0.1666667   0.2222222  -0.1538462), wk =   0.0028490
        k(   92) = (   0.1666667   0.2222222  -0.0769231), wk =   0.0028490
        k(   93) = (   0.1666667   0.3333333   0.0000000), wk =   0.0028490
        k(   94) = (   0.1666667   0.3333333   0.0769231), wk =   0.0028490
        k(   95) = (   0.1666667   0.3333333   0.1538462), wk =   0.0028490
        k(   96) = (   0.1666667   0.3333333   0.2307692), wk =   0.0028490
        k(   97) = (   0.1666667   0.3333333   0.3076923), wk =   0.0028490
        k(   98) = (   0.1666667   0.3333333   0.3846154), wk =   0.0028490
        k(   99) = (   0.1666667   0.3333333   0.4615385), wk =   0.0028490
        k(  100) = (   0.1666667   0.3333333  -0.4615385), wk =   0.0028490
        k(  101) = (   0.1666667   0.3333333  -0.3846154), wk =   0.0028490
        k(  102) = (   0.1666667   0.3333333  -0.3076923), wk =   0.0028490
        k(  103) = (   0.1666667   0.3333333  -0.2307692), wk =   0.0028490
        k(  104) = (   0.1666667   0.3333333  -0.1538462), wk =   0.0028490
        k(  105) = (   0.1666667   0.3333333  -0.0769231), wk =   0.0028490
        k(  106) = (   0.1666667   0.4444444   0.0000000), wk =   0.0028490
        k(  107) = (   0.1666667   0.4444444   0.0769231), wk =   0.0028490
        k(  108) = (   0.1666667   0.4444444   0.1538462), wk =   0.0028490
        k(  109) = (   0.1666667   0.4444444   0.2307692), wk =   0.0028490
        k(  110) = (   0.1666667   0.4444444   0.3076923), wk =   0.0028490
        k(  111) = (   0.1666667   0.4444444   0.3846154), wk =   0.0028490
        k(  112) = (   0.1666667   0.4444444   0.4615385), wk =   0.0028490
        k(  113) = (   0.1666667   0.4444444  -0.4615385), wk =   0.0028490
        k(  114) = (   0.1666667   0.4444444  -0.3846154), wk =   0.0028490
        k(  115) = (   0.1666667   0.4444444  -0.3076923), wk =   0.0028490
        k(  116) = (   0.1666667   0.4444444  -0.2307692), wk =   0.0028490
        k(  117) = (   0.1666667   0.4444444  -0.1538462), wk =   0.0028490
        k(  118) = (   0.1666667   0.4444444  -0.0769231), wk =   0.0028490
        k(  119) = (   0.3333333   0.0000000   0.0000000), wk =   0.0028490
        k(  120) = (   0.3333333   0.0000000   0.0769231), wk =   0.0028490
        k(  121) = (   0.3333333   0.0000000   0.1538462), wk =   0.0028490
        k(  122) = (   0.3333333   0.0000000   0.2307692), wk =   0.0028490
        k(  123) = (   0.3333333   0.0000000   0.3076923), wk =   0.0028490
        k(  124) = (   0.3333333   0.0000000   0.3846154), wk =   0.0028490
        k(  125) = (   0.3333333   0.0000000   0.4615385), wk =   0.0028490
        k(  126) = (   0.3333333   0.1111111   0.0000000), wk =   0.0028490
        k(  127) = (   0.3333333   0.1111111   0.0769231), wk =   0.0028490
        k(  128) = (   0.3333333   0.1111111   0.1538462), wk =   0.0028490
        k(  129) = (   0.3333333   0.1111111   0.2307692), wk =   0.0028490
        k(  130) = (   0.3333333   0.1111111   0.3076923), wk =   0.0028490
        k(  131) = (   0.3333333   0.1111111   0.3846154), wk =   0.0028490
        k(  132) = (   0.3333333   0.1111111   0.4615385), wk =   0.0028490
        k(  133) = (   0.3333333   0.1111111  -0.4615385), wk =   0.0028490
        k(  134) = (   0.3333333   0.1111111  -0.3846154), wk =   0.0028490
        k(  135) = (   0.3333333   0.1111111  -0.3076923), wk =   0.0028490
        k(  136) = (   0.3333333   0.1111111  -0.2307692), wk =   0.0028490
        k(  137) = (   0.3333333   0.1111111  -0.1538462), wk =   0.0028490
        k(  138) = (   0.3333333   0.1111111  -0.0769231), wk =   0.0028490
        k(  139) = (   0.3333333   0.2222222   0.0000000), wk =   0.0028490
        k(  140) = (   0.3333333   0.2222222   0.0769231), wk =   0.0028490
        k(  141) = (   0.3333333   0.2222222   0.1538462), wk =   0.0028490
        k(  142) = (   0.3333333   0.2222222   0.2307692), wk =   0.0028490
        k(  143) = (   0.3333333   0.2222222   0.3076923), wk =   0.0028490
        k(  144) = (   0.3333333   0.2222222   0.3846154), wk =   0.0028490
        k(  145) = (   0.3333333   0.2222222   0.4615385), wk =   0.0028490
        k(  146) = (   0.3333333   0.2222222  -0.4615385), wk =   0.0028490
        k(  147) = (   0.3333333   0.2222222  -0.3846154), wk =   0.0028490
        k(  148) = (   0.3333333   0.2222222  -0.3076923), wk =   0.0028490
        k(  149) = (   0.3333333   0.2222222  -0.2307692), wk =   0.0028490
        k(  150) = (   0.3333333   0.2222222  -0.1538462), wk =   0.0028490
        k(  151) = (   0.3333333   0.2222222  -0.0769231), wk =   0.0028490
        k(  152) = (   0.3333333   0.3333333   0.0000000), wk =   0.0028490
        k(  153) = (   0.3333333   0.3333333   0.0769231), wk =   0.0028490
        k(  154) = (   0.3333333   0.3333333   0.1538462), wk =   0.0028490
        k(  155) = (   0.3333333   0.3333333   0.2307692), wk =   0.0028490
        k(  156) = (   0.3333333   0.3333333   0.3076923), wk =   0.0028490
        k(  157) = (   0.3333333   0.3333333   0.3846154), wk =   0.0028490
        k(  158) = (   0.3333333   0.3333333   0.4615385), wk =   0.0028490
        k(  159) = (   0.3333333   0.3333333  -0.4615385), wk =   0.0028490
        k(  160) = (   0.3333333   0.3333333  -0.3846154), wk =   0.0028490
        k(  161) = (   0.3333333   0.3333333  -0.3076923), wk =   0.0028490
        k(  162) = (   0.3333333   0.3333333  -0.2307692), wk =   0.0028490
        k(  163) = (   0.3333333   0.3333333  -0.1538462), wk =   0.0028490
        k(  164) = (   0.3333333   0.3333333  -0.0769231), wk =   0.0028490
        k(  165) = (   0.3333333   0.4444444   0.0000000), wk =   0.0028490
        k(  166) = (   0.3333333   0.4444444   0.0769231), wk =   0.0028490
        k(  167) = (   0.3333333   0.4444444   0.1538462), wk =   0.0028490
        k(  168) = (   0.3333333   0.4444444   0.2307692), wk =   0.0028490
        k(  169) = (   0.3333333   0.4444444   0.3076923), wk =   0.0028490
        k(  170) = (   0.3333333   0.4444444   0.3846154), wk =   0.0028490
        k(  171) = (   0.3333333   0.4444444   0.4615385), wk =   0.0028490
        k(  172) = (   0.3333333   0.4444444  -0.4615385), wk =   0.0028490
        k(  173) = (   0.3333333   0.4444444  -0.3846154), wk =   0.0028490
        k(  174) = (   0.3333333   0.4444444  -0.3076923), wk =   0.0028490
        k(  175) = (   0.3333333   0.4444444  -0.2307692), wk =   0.0028490
        k(  176) = (   0.3333333   0.4444444  -0.1538462), wk =   0.0028490
        k(  177) = (   0.3333333   0.4444444  -0.0769231), wk =   0.0028490
        k(  178) = (  -0.5000000   0.0000000   0.0000000), wk =   0.0014245
        k(  179) = (  -0.5000000   0.0000000   0.0769231), wk =   0.0028490
        k(  180) = (  -0.5000000   0.0000000   0.1538462), wk =   0.0028490
        k(  181) = (  -0.5000000   0.0000000   0.2307692), wk =   0.0028490
        k(  182) = (  -0.5000000   0.0000000   0.3076923), wk =   0.0028490
        k(  183) = (  -0.5000000   0.0000000   0.3846154), wk =   0.0028490
        k(  184) = (  -0.5000000   0.0000000   0.4615385), wk =   0.0028490
        k(  185) = (  -0.5000000   0.1111111   0.0000000), wk =   0.0028490
        k(  186) = (  -0.5000000   0.1111111   0.0769231), wk =   0.0028490
        k(  187) = (  -0.5000000   0.1111111   0.1538462), wk =   0.0028490
        k(  188) = (  -0.5000000   0.1111111   0.2307692), wk =   0.0028490
        k(  189) = (  -0.5000000   0.1111111   0.3076923), wk =   0.0028490
        k(  190) = (  -0.5000000   0.1111111   0.3846154), wk =   0.0028490
        k(  191) = (  -0.5000000   0.1111111   0.4615385), wk =   0.0028490
        k(  192) = (  -0.5000000   0.1111111  -0.4615385), wk =   0.0028490
        k(  193) = (  -0.5000000   0.1111111  -0.3846154), wk =   0.0028490
        k(  194) = (  -0.5000000   0.1111111  -0.3076923), wk =   0.0028490
        k(  195) = (  -0.5000000   0.1111111  -0.2307692), wk =   0.0028490
        k(  196) = (  -0.5000000   0.1111111  -0.1538462), wk =   0.0028490
        k(  197) = (  -0.5000000   0.1111111  -0.0769231), wk =   0.0028490
        k(  198) = (  -0.5000000   0.2222222   0.0000000), wk =   0.0028490
        k(  199) = (  -0.5000000   0.2222222   0.0769231), wk =   0.0028490
        k(  200) = (  -0.5000000   0.2222222   0.1538462), wk =   0.0028490
        k(  201) = (  -0.5000000   0.2222222   0.2307692), wk =   0.0028490
        k(  202) = (  -0.5000000   0.2222222   0.3076923), wk =   0.0028490
        k(  203) = (  -0.5000000   0.2222222   0.3846154), wk =   0.0028490
        k(  204) = (  -0.5000000   0.2222222   0.4615385), wk =   0.0028490
        k(  205) = (  -0.5000000   0.2222222  -0.4615385), wk =   0.0028490
        k(  206) = (  -0.5000000   0.2222222  -0.3846154), wk =   0.0028490
        k(  207) = (  -0.5000000   0.2222222  -0.3076923), wk =   0.0028490
        k(  208) = (  -0.5000000   0.2222222  -0.2307692), wk =   0.0028490
        k(  209) = (  -0.5000000   0.2222222  -0.1538462), wk =   0.0028490
        k(  210) = (  -0.5000000   0.2222222  -0.0769231), wk =   0.0028490
        k(  211) = (  -0.5000000   0.3333333   0.0000000), wk =   0.0028490
        k(  212) = (  -0.5000000   0.3333333   0.0769231), wk =   0.0028490
        k(  213) = (  -0.5000000   0.3333333   0.1538462), wk =   0.0028490
        k(  214) = (  -0.5000000   0.3333333   0.2307692), wk =   0.0028490
        k(  215) = (  -0.5000000   0.3333333   0.3076923), wk =   0.0028490
        k(  216) = (  -0.5000000   0.3333333   0.3846154), wk =   0.0028490
        k(  217) = (  -0.5000000   0.3333333   0.4615385), wk =   0.0028490
        k(  218) = (  -0.5000000   0.3333333  -0.4615385), wk =   0.0028490
        k(  219) = (  -0.5000000   0.3333333  -0.3846154), wk =   0.0028490
        k(  220) = (  -0.5000000   0.3333333  -0.3076923), wk =   0.0028490
        k(  221) = (  -0.5000000   0.3333333  -0.2307692), wk =   0.0028490
        k(  222) = (  -0.5000000   0.3333333  -0.1538462), wk =   0.0028490
        k(  223) = (  -0.5000000   0.3333333  -0.0769231), wk =   0.0028490
        k(  224) = (  -0.5000000   0.4444444   0.0000000), wk =   0.0028490
        k(  225) = (  -0.5000000   0.4444444   0.0769231), wk =   0.0028490
        k(  226) = (  -0.5000000   0.4444444   0.1538462), wk =   0.0028490
        k(  227) = (  -0.5000000   0.4444444   0.2307692), wk =   0.0028490
        k(  228) = (  -0.5000000   0.4444444   0.3076923), wk =   0.0028490
        k(  229) = (  -0.5000000   0.4444444   0.3846154), wk =   0.0028490
        k(  230) = (  -0.5000000   0.4444444   0.4615385), wk =   0.0028490
        k(  231) = (  -0.5000000   0.4444444  -0.4615385), wk =   0.0028490
        k(  232) = (  -0.5000000   0.4444444  -0.3846154), wk =   0.0028490
        k(  233) = (  -0.5000000   0.4444444  -0.3076923), wk =   0.0028490
        k(  234) = (  -0.5000000   0.4444444  -0.2307692), wk =   0.0028490
        k(  235) = (  -0.5000000   0.4444444  -0.1538462), wk =   0.0028490
        k(  236) = (  -0.5000000   0.4444444  -0.0769231), wk =   0.0028490
        k(  237) = (   0.1666667  -0.0000000  -0.0769231), wk =   0.0028490
        k(  238) = (   0.1666667  -0.0000000  -0.1538462), wk =   0.0028490
        k(  239) = (   0.1666667  -0.0000000  -0.2307692), wk =   0.0028490
        k(  240) = (   0.1666667  -0.0000000  -0.3076923), wk =   0.0028490
        k(  241) = (   0.1666667  -0.0000000  -0.3846154), wk =   0.0028490
        k(  242) = (   0.1666667  -0.0000000  -0.4615385), wk =   0.0028490
        k(  243) = (   0.1666667  -0.1111111   0.0000000), wk =   0.0028490
        k(  244) = (   0.1666667  -0.1111111  -0.0769231), wk =   0.0028490
        k(  245) = (   0.1666667  -0.1111111  -0.1538462), wk =   0.0028490
        k(  246) = (   0.1666667  -0.1111111  -0.2307692), wk =   0.0028490
        k(  247) = (   0.1666667  -0.1111111  -0.3076923), wk =   0.0028490
        k(  248) = (   0.1666667  -0.1111111  -0.3846154), wk =   0.0028490
        k(  249) = (   0.1666667  -0.1111111  -0.4615385), wk =   0.0028490
        k(  250) = (   0.1666667  -0.1111111   0.4615385), wk =   0.0028490
        k(  251) = (   0.1666667  -0.1111111   0.3846154), wk =   0.0028490
        k(  252) = (   0.1666667  -0.1111111   0.3076923), wk =   0.0028490
        k(  253) = (   0.1666667  -0.1111111   0.2307692), wk =   0.0028490
        k(  254) = (   0.1666667  -0.1111111   0.1538462), wk =   0.0028490
        k(  255) = (   0.1666667  -0.1111111   0.0769231), wk =   0.0028490
        k(  256) = (   0.1666667  -0.2222222   0.0000000), wk =   0.0028490
        k(  257) = (   0.1666667  -0.2222222  -0.0769231), wk =   0.0028490
        k(  258) = (   0.1666667  -0.2222222  -0.1538462), wk =   0.0028490
        k(  259) = (   0.1666667  -0.2222222  -0.2307692), wk =   0.0028490
        k(  260) = (   0.1666667  -0.2222222  -0.3076923), wk =   0.0028490
        k(  261) = (   0.1666667  -0.2222222  -0.3846154), wk =   0.0028490
        k(  262) = (   0.1666667  -0.2222222  -0.4615385), wk =   0.0028490
        k(  263) = (   0.1666667  -0.2222222   0.4615385), wk =   0.0028490
        k(  264) = (   0.1666667  -0.2222222   0.3846154), wk =   0.0028490
        k(  265) = (   0.1666667  -0.2222222   0.3076923), wk =   0.0028490
        k(  266) = (   0.1666667  -0.2222222   0.2307692), wk =   0.0028490
        k(  267) = (   0.1666667  -0.2222222   0.1538462), wk =   0.0028490
        k(  268) = (   0.1666667  -0.2222222   0.0769231), wk =   0.0028490
        k(  269) = (   0.1666667  -0.3333333   0.0000000), wk =   0.0028490
        k(  270) = (   0.1666667  -0.3333333  -0.0769231), wk =   0.0028490
        k(  271) = (   0.1666667  -0.3333333  -0.1538462), wk =   0.0028490
        k(  272) = (   0.1666667  -0.3333333  -0.2307692), wk =   0.0028490
        k(  273) = (   0.1666667  -0.3333333  -0.3076923), wk =   0.0028490
        k(  274) = (   0.1666667  -0.3333333  -0.3846154), wk =   0.0028490
        k(  275) = (   0.1666667  -0.3333333  -0.4615385), wk =   0.0028490
        k(  276) = (   0.1666667  -0.3333333   0.4615385), wk =   0.0028490
        k(  277) = (   0.1666667  -0.3333333   0.3846154), wk =   0.0028490
        k(  278) = (   0.1666667  -0.3333333   0.3076923), wk =   0.0028490
        k(  279) = (   0.1666667  -0.3333333   0.2307692), wk =   0.0028490
        k(  280) = (   0.1666667  -0.3333333   0.1538462), wk =   0.0028490
        k(  281) = (   0.1666667  -0.3333333   0.0769231), wk =   0.0028490
        k(  282) = (   0.1666667  -0.4444444   0.0000000), wk =   0.0028490
        k(  283) = (   0.1666667  -0.4444444  -0.0769231), wk =   0.0028490
        k(  284) = (   0.1666667  -0.4444444  -0.1538462), wk =   0.0028490
        k(  285) = (   0.1666667  -0.4444444  -0.2307692), wk =   0.0028490
        k(  286) = (   0.1666667  -0.4444444  -0.3076923), wk =   0.0028490
        k(  287) = (   0.1666667  -0.4444444  -0.3846154), wk =   0.0028490
        k(  288) = (   0.1666667  -0.4444444  -0.4615385), wk =   0.0028490
        k(  289) = (   0.1666667  -0.4444444   0.4615385), wk =   0.0028490
        k(  290) = (   0.1666667  -0.4444444   0.3846154), wk =   0.0028490
        k(  291) = (   0.1666667  -0.4444444   0.3076923), wk =   0.0028490
        k(  292) = (   0.1666667  -0.4444444   0.2307692), wk =   0.0028490
        k(  293) = (   0.1666667  -0.4444444   0.1538462), wk =   0.0028490
        k(  294) = (   0.1666667  -0.4444444   0.0769231), wk =   0.0028490
        k(  295) = (   0.3333333  -0.0000000  -0.0769231), wk =   0.0028490
        k(  296) = (   0.3333333  -0.0000000  -0.1538462), wk =   0.0028490
        k(  297) = (   0.3333333  -0.0000000  -0.2307692), wk =   0.0028490
        k(  298) = (   0.3333333  -0.0000000  -0.3076923), wk =   0.0028490
        k(  299) = (   0.3333333  -0.0000000  -0.3846154), wk =   0.0028490
        k(  300) = (   0.3333333  -0.0000000  -0.4615385), wk =   0.0028490
        k(  301) = (   0.3333333  -0.1111111   0.0000000), wk =   0.0028490
        k(  302) = (   0.3333333  -0.1111111  -0.0769231), wk =   0.0028490
        k(  303) = (   0.3333333  -0.1111111  -0.1538462), wk =   0.0028490
        k(  304) = (   0.3333333  -0.1111111  -0.2307692), wk =   0.0028490
        k(  305) = (   0.3333333  -0.1111111  -0.3076923), wk =   0.0028490
        k(  306) = (   0.3333333  -0.1111111  -0.3846154), wk =   0.0028490
        k(  307) = (   0.3333333  -0.1111111  -0.4615385), wk =   0.0028490
        k(  308) = (   0.3333333  -0.1111111   0.4615385), wk =   0.0028490
        k(  309) = (   0.3333333  -0.1111111   0.3846154), wk =   0.0028490
        k(  310) = (   0.3333333  -0.1111111   0.3076923), wk =   0.0028490
        k(  311) = (   0.3333333  -0.1111111   0.2307692), wk =   0.0028490
        k(  312) = (   0.3333333  -0.1111111   0.1538462), wk =   0.0028490
        k(  313) = (   0.3333333  -0.1111111   0.0769231), wk =   0.0028490
        k(  314) = (   0.3333333  -0.2222222   0.0000000), wk =   0.0028490
        k(  315) = (   0.3333333  -0.2222222  -0.0769231), wk =   0.0028490
        k(  316) = (   0.3333333  -0.2222222  -0.1538462), wk =   0.0028490
        k(  317) = (   0.3333333  -0.2222222  -0.2307692), wk =   0.0028490
        k(  318) = (   0.3333333  -0.2222222  -0.3076923), wk =   0.0028490
        k(  319) = (   0.3333333  -0.2222222  -0.3846154), wk =   0.0028490
        k(  320) = (   0.3333333  -0.2222222  -0.4615385), wk =   0.0028490
        k(  321) = (   0.3333333  -0.2222222   0.4615385), wk =   0.0028490
        k(  322) = (   0.3333333  -0.2222222   0.3846154), wk =   0.0028490
        k(  323) = (   0.3333333  -0.2222222   0.3076923), wk =   0.0028490
        k(  324) = (   0.3333333  -0.2222222   0.2307692), wk =   0.0028490
        k(  325) = (   0.3333333  -0.2222222   0.1538462), wk =   0.0028490
        k(  326) = (   0.3333333  -0.2222222   0.0769231), wk =   0.0028490
        k(  327) = (   0.3333333  -0.3333333   0.0000000), wk =   0.0028490
        k(  328) = (   0.3333333  -0.3333333  -0.0769231), wk =   0.0028490
        k(  329) = (   0.3333333  -0.3333333  -0.1538462), wk =   0.0028490
        k(  330) = (   0.3333333  -0.3333333  -0.2307692), wk =   0.0028490
        k(  331) = (   0.3333333  -0.3333333  -0.3076923), wk =   0.0028490
        k(  332) = (   0.3333333  -0.3333333  -0.3846154), wk =   0.0028490
        k(  333) = (   0.3333333  -0.3333333  -0.4615385), wk =   0.0028490
        k(  334) = (   0.3333333  -0.3333333   0.4615385), wk =   0.0028490
        k(  335) = (   0.3333333  -0.3333333   0.3846154), wk =   0.0028490
        k(  336) = (   0.3333333  -0.3333333   0.3076923), wk =   0.0028490
        k(  337) = (   0.3333333  -0.3333333   0.2307692), wk =   0.0028490
        k(  338) = (   0.3333333  -0.3333333   0.1538462), wk =   0.0028490
        k(  339) = (   0.3333333  -0.3333333   0.0769231), wk =   0.0028490
        k(  340) = (   0.3333333  -0.4444444   0.0000000), wk =   0.0028490
        k(  341) = (   0.3333333  -0.4444444  -0.0769231), wk =   0.0028490
        k(  342) = (   0.3333333  -0.4444444  -0.1538462), wk =   0.0028490
        k(  343) = (   0.3333333  -0.4444444  -0.2307692), wk =   0.0028490
        k(  344) = (   0.3333333  -0.4444444  -0.3076923), wk =   0.0028490
        k(  345) = (   0.3333333  -0.4444444  -0.3846154), wk =   0.0028490
        k(  346) = (   0.3333333  -0.4444444  -0.4615385), wk =   0.0028490
        k(  347) = (   0.3333333  -0.4444444   0.4615385), wk =   0.0028490
        k(  348) = (   0.3333333  -0.4444444   0.3846154), wk =   0.0028490
        k(  349) = (   0.3333333  -0.4444444   0.3076923), wk =   0.0028490
        k(  350) = (   0.3333333  -0.4444444   0.2307692), wk =   0.0028490
        k(  351) = (   0.3333333  -0.4444444   0.1538462), wk =   0.0028490
        k(  352) = (   0.3333333  -0.4444444   0.0769231), wk =   0.0028490

     Dense  grid:   331113 G-vectors     FFT dimensions: ( 135,  90,  64)

     Smooth grid:   117017 G-vectors     FFT dimensions: (  96,  64,  45)

     Estimated max dynamical RAM per process >     202.77MB

     Estimated total allocated dynamical RAM >  103820.12MB
     Generating pointlists ...
     new r_m :   0.0847 (alat units)  1.8098 (a.u.) for type    1
     new r_m :   0.0950 (alat units)  2.0294 (a.u.) for type    2

     Initial potential from superposition of free atoms
     Check: negative starting charge=(component1):   -0.515464
     Check: negative starting charge=(component2):   -0.210157

     starting charge  191.96750, renormalised to  192.00000

     negative rho (up, down):  5.156E-01 2.102E-01
     Starting wfc are  204 randomized atomic wfcs

     total cpu time spent up to now is       31.3 secs

     per-process dynamical memory:   175.2 Mb

     Self-consistent Calculation

     iteration #  1     ecut=    45.00 Ry     beta=0.35
     Davidson diagonalization with overlap
     ethr =  1.00E-02,  avg # of iterations =  2.5

     negative rho (up, down):  4.642E-01 2.632E-01

     total cpu time spent up to now is       61.1 secs

     total energy              =   -1326.81062488 Ry
     Harris-Foulkes estimate   =   -1325.34955648 Ry
     estimated scf accuracy    <       2.14997550 Ry

     total magnetization       =     9.84 Bohr mag/cell
     absolute magnetization    =    11.88 Bohr mag/cell

     iteration #  2     ecut=    45.00 Ry     beta=0.35
     Davidson diagonalization with overlap
     ethr =  1.12E-03,  avg # of iterations =  1.7

     negative rho (up, down):  4.012E-01 3.326E-01

     total cpu time spent up to now is       88.0 secs

     total energy              =   -1328.05576003 Ry
     Harris-Foulkes estimate   =   -1326.93000606 Ry
     estimated scf accuracy    <       0.94006594 Ry

     total magnetization       =     6.81 Bohr mag/cell
     absolute magnetization    =     8.99 Bohr mag/cell

     iteration #  3     ecut=    45.00 Ry     beta=0.35
     Davidson diagonalization with overlap
     ethr =  4.90E-04,  avg # of iterations =  5.4

     negative rho (up, down):  3.887E-01 3.464E-01

     total cpu time spent up to now is      126.6 secs

     total energy              =   -1328.06671383 Ry
     Harris-Foulkes estimate   =   -1328.37778933 Ry
     estimated scf accuracy    <       3.08895815 Ry

     total magnetization       =     3.40 Bohr mag/cell
     absolute magnetization    =     4.82 Bohr mag/cell

     iteration #  4     ecut=    45.00 Ry     beta=0.35
     Davidson diagonalization with overlap
     ethr =  4.90E-04,  avg # of iterations =  4.9

     negative rho (up, down):  3.759E-01 3.611E-01

     total cpu time spent up to now is      161.5 secs

     total energy              =   -1328.38691641 Ry
     Harris-Foulkes estimate   =   -1328.36180899 Ry
     estimated scf accuracy    <       0.44685074 Ry

     total magnetization       =     1.99 Bohr mag/cell
     absolute magnetization    =     3.43 Bohr mag/cell

     iteration #  5     ecut=    45.00 Ry     beta=0.35
     Davidson diagonalization with overlap
     ethr =  2.33E-04,  avg # of iterations =  2.5

     negative rho (up, down):  3.686E-01 3.699E-01

     total cpu time spent up to now is      190.0 secs

     total energy              =   -1328.44820953 Ry
     Harris-Foulkes estimate   =   -1328.44086723 Ry
     estimated scf accuracy    <       0.09829714 Ry

     total magnetization       =     1.09 Bohr mag/cell
     absolute magnetization    =     2.27 Bohr mag/cell

     iteration #  6     ecut=    45.00 Ry     beta=0.35
     Davidson diagonalization with overlap
     ethr =  5.12E-05,  avg # of iterations =  4.9

     negative rho (up, down):  3.669E-01 3.720E-01

     total cpu time spent up to now is      229.3 secs

     total energy              =   -1328.46826195 Ry
     Harris-Foulkes estimate   =   -1328.46898284 Ry
     estimated scf accuracy    <       0.02787047 Ry

     total magnetization       =     0.55 Bohr mag/cell
     absolute magnetization    =     1.38 Bohr mag/cell

     iteration #  7     ecut=    45.00 Ry     beta=0.35
     Davidson diagonalization with overlap
     ethr =  1.45E-05,  avg # of iterations =  5.8

     negative rho (up, down):  3.667E-01 3.722E-01

     total cpu time spent up to now is      271.2 secs

     total energy              =   -1328.47498017 Ry
     Harris-Foulkes estimate   =   -1328.47352420 Ry
     estimated scf accuracy    <       0.00646863 Ry

     total magnetization       =     0.37 Bohr mag/cell
     absolute magnetization    =     1.03 Bohr mag/cell

     iteration #  8     ecut=    45.00 Ry     beta=0.35
     Davidson diagonalization with overlap
     ethr =  3.37E-06,  avg # of iterations =  6.4

     negative rho (up, down):  3.670E-01 3.720E-01

     total cpu time spent up to now is      317.0 secs

     total energy              =   -1328.47653096 Ry
     Harris-Foulkes estimate   =   -1328.47618126 Ry
     estimated scf accuracy    <       0.00380463 Ry

     total magnetization       =     0.28 Bohr mag/cell
     absolute magnetization    =     0.81 Bohr mag/cell

     iteration #  9     ecut=    45.00 Ry     beta=0.35
     Davidson diagonalization with overlap
     ethr =  1.98E-06,  avg # of iterations =  5.0

     negative rho (up, down):  3.676E-01 3.714E-01

     total cpu time spent up to now is      357.1 secs

     total energy              =   -1328.47851904 Ry
     Harris-Foulkes estimate   =   -1328.47711615 Ry
     estimated scf accuracy    <       0.00211829 Ry

     total magnetization       =     0.24 Bohr mag/cell
     absolute magnetization    =     0.72 Bohr mag/cell

     iteration # 10     ecut=    45.00 Ry     beta=0.35
     Davidson diagonalization with overlap
     ethr =  1.10E-06,  avg # of iterations =  2.4

     negative rho (up, down):  3.684E-01 3.706E-01

     total cpu time spent up to now is      385.2 secs

     total energy              =   -1328.48010542 Ry
     Harris-Foulkes estimate   =   -1328.47883488 Ry
     estimated scf accuracy    <       0.00034686 Ry

     total magnetization       =     0.17 Bohr mag/cell
     absolute magnetization    =     0.53 Bohr mag/cell

     iteration # 11     ecut=    45.00 Ry     beta=0.35
     Davidson diagonalization with overlap
     ethr =  1.81E-07,  avg # of iterations =  3.9

     negative rho (up, down):  3.689E-01 3.700E-01

     total cpu time spent up to now is      421.7 secs

     total energy              =   -1328.48074742 Ry
     Harris-Foulkes estimate   =   -1328.48039383 Ry
     estimated scf accuracy    <       0.00007350 Ry

     total magnetization       =     0.08 Bohr mag/cell
     absolute magnetization    =     0.27 Bohr mag/cell

     iteration # 12     ecut=    45.00 Ry     beta=0.35
     Davidson diagonalization with overlap
     ethr =  3.83E-08,  avg # of iterations =  3.9

     negative rho (up, down):  3.693E-01 3.697E-01

     total cpu time spent up to now is      460.0 secs

     total energy              =   -1328.48090847 Ry
     Harris-Foulkes estimate   =   -1328.48083459 Ry
     estimated scf accuracy    <       0.00002017 Ry

     total magnetization       =     0.03 Bohr mag/cell
     absolute magnetization    =     0.13 Bohr mag/cell

     iteration # 13     ecut=    45.00 Ry     beta=0.35
     Davidson diagonalization with overlap
     ethr =  1.05E-08,  avg # of iterations =  3.8

     negative rho (up, down):  3.694E-01 3.696E-01

     total cpu time spent up to now is      497.3 secs

     total energy              =   -1328.48094430 Ry
     Harris-Foulkes estimate   =   -1328.48092724 Ry
     estimated scf accuracy    <       0.00000696 Ry

     total magnetization       =     0.02 Bohr mag/cell
     absolute magnetization    =     0.06 Bohr mag/cell

     iteration # 14     ecut=    45.00 Ry     beta=0.35
     Davidson diagonalization with overlap
     ethr =  3.62E-09,  avg # of iterations =  3.7

     negative rho (up, down):  3.695E-01 3.695E-01

     total cpu time spent up to now is      532.9 secs

     total energy              =   -1328.48095301 Ry
     Harris-Foulkes estimate   =   -1328.48094977 Ry
     estimated scf accuracy    <       0.00000441 Ry

     total magnetization       =     0.01 Bohr mag/cell
     absolute magnetization    =     0.03 Bohr mag/cell

     iteration # 15     ecut=    45.00 Ry     beta=0.35
     Davidson diagonalization with overlap
     ethr =  2.30E-09,  avg # of iterations =  3.0

     negative rho (up, down):  3.695E-01 3.695E-01

     total cpu time spent up to now is      564.0 secs

     total energy              =   -1328.48095499 Ry
     Harris-Foulkes estimate   =   -1328.48095444 Ry
     estimated scf accuracy    <       0.00000157 Ry

     total magnetization       =     0.00 Bohr mag/cell
     absolute magnetization    =     0.02 Bohr mag/cell

     iteration # 16     ecut=    45.00 Ry     beta=0.35
     Davidson diagonalization with overlap
     ethr =  8.18E-10,  avg # of iterations =  3.0

     negative rho (up, down):  3.695E-01 3.695E-01

     total cpu time spent up to now is      593.0 secs

     total energy              =   -1328.48095595 Ry
     Harris-Foulkes estimate   =   -1328.48095531 Ry
     estimated scf accuracy    <       0.00000124 Ry

     total magnetization       =     0.00 Bohr mag/cell
     absolute magnetization    =     0.01 Bohr mag/cell

     iteration # 17     ecut=    45.00 Ry     beta=0.35
     Davidson diagonalization with overlap
     ethr =  6.45E-10,  avg # of iterations =  3.0

     negative rho (up, down):  3.695E-01 3.695E-01

     total cpu time spent up to now is      622.9 secs

     total energy              =   -1328.48095634 Ry
     Harris-Foulkes estimate   =   -1328.48095623 Ry
     estimated scf accuracy    <       0.00000024 Ry

     total magnetization       =     0.00 Bohr mag/cell
     absolute magnetization    =     0.01 Bohr mag/cell

     iteration # 18     ecut=    45.00 Ry     beta=0.35
     Davidson diagonalization with overlap
     ethr =  1.28E-10,  avg # of iterations =  3.1

     negative rho (up, down):  3.695E-01 3.695E-01

     total cpu time spent up to now is      653.2 secs

     total energy              =   -1328.48095652 Ry
     Harris-Foulkes estimate   =   -1328.48095641 Ry
     estimated scf accuracy    <       0.00000025 Ry

     total magnetization       =     0.00 Bohr mag/cell
     absolute magnetization    =     0.00 Bohr mag/cell

     iteration # 19     ecut=    45.00 Ry     beta=0.35
     Davidson diagonalization with overlap
     ethr =  1.28E-10,  avg # of iterations =  3.0

     negative rho (up, down):  3.695E-01 3.695E-01
 
     Magnetic moment per site:
     atom:    1    charge:    9.0735    magn:    0.0000    constr:    0.0000
     atom:    2    charge:    9.0783    magn:    0.0000    constr:    0.0000
     atom:    3    charge:    9.0595    magn:    0.0001    constr:    0.0000
     atom:    4    charge:    9.0772    magn:    0.0001    constr:    0.0000
     atom:    5    charge:    9.0834    magn:    0.0001    constr:    0.0000
     atom:    6    charge:    9.0857    magn:    0.0000    constr:    0.0000
     atom:    7    charge:    9.0853    magn:    0.0000    constr:    0.0000
     atom:    8    charge:    9.0630    magn:    0.0001    constr:    0.0000
     atom:    9    charge:    9.0853    magn:    0.0000    constr:    0.0000
     atom:   10    charge:    9.0853    magn:    0.0000    constr:    0.0000
     atom:   11    charge:    9.0647    magn:    0.0001    constr:    0.0000
     atom:   12    charge:    9.0835    magn:   -0.0000    constr:    0.0000
     atom:   13    charge:    1.7877    magn:   -0.0000    constr:    0.0000
     atom:   14    charge:    1.8020    magn:   -0.0000    constr:    0.0000
     atom:   15    charge:    1.7988    magn:   -0.0000    constr:    0.0000
     atom:   16    charge:    1.7859    magn:   -0.0000    constr:    0.0000
     atom:   17    charge:    1.8053    magn:   -0.0000    constr:    0.0000
     atom:   18    charge:    1.7735    magn:   -0.0000    constr:    0.0000
     atom:   19    charge:    1.8031    magn:   -0.0000    constr:    0.0000
     atom:   20    charge:    1.8012    magn:   -0.0000    constr:    0.0000
     atom:   21    charge:    1.8034    magn:   -0.0000    constr:    0.0000
     atom:   22    charge:    1.7896    magn:   -0.0000    constr:    0.0000
     atom:   23    charge:    1.7929    magn:   -0.0000    constr:    0.0000
     atom:   24    charge:    1.7928    magn:   -0.0000    constr:    0.0000

     total cpu time spent up to now is      683.3 secs

     End of self-consistent calculation

 ------ SPIN UP ------------


          k = 0.0000 0.0000 0.0000 ( 14633 PWs)   bands (ev):

   -35.1770 -35.1513 -35.1405 -35.1270 -35.1177 -35.1050 -35.1040 -35.0977
   -35.0881 -35.0860 -35.0803 -35.0602 -13.4418 -13.4198 -13.4135 -13.4063
   -13.3959 -13.3633 -13.3567 -13.3398 -13.3251 -13.3069 -13.3012 -13.2890
   -13.2820 -13.2578 -13.2411 -13.2101 -13.1977 -13.1942 -13.1891 -13.1840
   -13.1792 -13.1631 -13.1583 -13.1427 -13.1392 -13.1307 -13.1227 -13.1205
   -13.1049 -13.0966 -13.0824 -13.0788 -13.0700 -13.0400 -13.0320 -13.0041
     2.1865   3.2198   3.3888   3.5476   4.0884   4.2279   6.0906   6.1460
     6.2317   6.3384   6.7588   7.5275   8.8607   8.9273   8.9814   9.1572
     9.2474   9.8449   9.9414   9.9613  10.0330  10.0786  10.1293  10.2461
    10.7645  10.8067  10.8266  10.8633  10.8711  10.8982  10.9773  11.0322
    11.0752  11.2153  11.3051  11.3739  11.6913  11.7837  12.0233  12.0405
    12.1604  12.2231  12.3649  12.5228  12.5543  12.8650  13.1704  14.0563
    14.1007  14.1082  14.5101  14.6815  14.7390  14.9418  15.0918  15.3676
    15.3920  15.4987  15.5610  15.6267  15.6412  15.6827  15.8495  15.9007
    16.0042  16.0112  16.0327

     occupation numbers 
     1.0000   1.0000   1.0000   1.0000   1.0000   1.0000   1.0000   1.0000
     1.0000   1.0000   1.0000   1.0000   1.0000   1.0000   1.0000   1.0000
     1.0000   1.0000   1.0000   1.0000   1.0000   1.0000   1.0000   1.0000
     1.0000   1.0000   1.0000   1.0000   1.0000   1.0000   1.0000   1.0000
     1.0000   1.0000   1.0000   1.0000   1.0000   1.0000   1.0000   1.0000
     1.0000   1.0000   1.0000   1.0000   1.0000   1.0000   1.0000   1.0000
     1.0000   1.0000   1.0000   1.0000   1.0000   1.0000   1.0000   1.0000
     1.0000   1.0000   1.0000   1.0000   1.0000   1.0000   1.0000   1.0000
     1.0000   1.0000   1.0000   1.0000   1.0000   1.0000   1.0000   1.0000
     1.0000   1.0000   1.0000   1.0000   1.0000   1.0000   1.0000   1.0000
     1.0000   1.0000   1.0000   1.0000   1.0000   1.0000   1.0000   1.0000
     1.0000   1.0000   1.0000   1.0000   1.0000   1.0049   1.0771   0.0018
     0.0008   0.0007   0.0000   0.0000   0.0000   0.0000   0.0000   0.0000
     0.0000   0.0000   0.0000   0.0000   0.0000   0.0000   0.0000   0.0000
     0.0000   0.0000   0.0000

          k = 0.0000-0.0619 0.1633 ( 14642 PWs)   bands (ev):

   -35.1765 -35.1509 -35.1406 -35.1269 -35.1174 -35.1052 -35.1038 -35.0978
   -35.0886 -35.0858 -35.0807 -35.0606 -13.4477 -13.4174 -13.4114 -13.4042
   -13.3881 -13.3679 -13.3608 -13.3575 -13.3424 -13.2969 -13.2918 -13.2830
   -13.2807 -13.2539 -13.2430 -13.2117 -13.1989 -13.1959 -13.1913 -13.1842
   -13.1804 -13.1657 -13.1607 -13.1408 -13.1379 -13.1322 -13.1199 -13.1167
   -13.1041 -13.0878 -13.0830 -13.0789 -13.0639 -13.0407 -13.0325 -13.0084
     2.2137   3.2324   3.4043   3.5600   4.0879   4.2278   6.1009   6.1598
     6.2451   6.3459   6.7245   7.5741   8.7807   8.7978   8.8911   9.1097
     9.1945   9.8418   9.8926   9.9200  10.0726  10.1707  10.2185  10.2646
    10.7763  10.8089  10.8343  10.8642  10.8950  10.9085  10.9768  11.0545
    11.1216  11.2464  11.3261  11.3862  11.7113  11.8082  12.0534  12.0759
    12.2264  12.2814  12.3891  12.5110  12.5433  12.7938  13.2018  14.0051
    14.1145  14.1288  14.3877  14.5940  14.7161  14.9152  15.1568  15.2148
    15.2407  15.3388  15.4090  15.6801  15.7011  15.7344  15.7638  15.8241
    15.9418  15.9689  16.1881

     occupation numbers 
     1.0000   1.0000   1.0000   1.0000   1.0000   1.0000   1.0000   1.0000
     1.0000   1.0000   1.0000   1.0000   1.0000   1.0000   1.0000   1.0000
     1.0000   1.0000   1.0000   1.0000   1.0000   1.0000   1.0000   1.0000
     1.0000   1.0000   1.0000   1.0000   1.0000   1.0000   1.0000   1.0000
     1.0000   1.0000   1.0000   1.0000   1.0000   1.0000   1.0000   1.0000
     1.0000   1.0000   1.0000   1.0000   1.0000   1.0000   1.0000   1.0000
     1.0000   1.0000   1.0000   1.0000   1.0000   1.0000   1.0000   1.0000
     1.0000   1.0000   1.0000   1.0000   1.0000   1.0000   1.0000   1.0000
     1.0000   1.0000   1.0000   1.0000   1.0000   1.0000   1.0000   1.0000
     1.0000   1.0000   1.0000   1.0000   1.0000   1.0000   1.0000   1.0000
     1.0000   1.0000   1.0000   1.0000   1.0000   1.0000   1.0000   1.0000
     1.0000   1.0000   1.0000   1.0000   1.0000   1.0017   1.0825   0.0044
     0.0006   0.0005   0.0000   0.0000   0.0000   0.0000   0.0000   0.0000
     0.0000   0.0000   0.0000   0.0000   0.0000   0.0000   0.0000   0.0000
     0.0000   0.0000   0.0000

          k = 0.0000-0.1238 0.3266 ( 14634 PWs)   bands (ev):

   -35.1751 -35.1498 -35.1408 -35.1263 -35.1166 -35.1055 -35.1034 -35.0981
   -35.0897 -35.0857 -35.0817 -35.0619 -13.4569 -13.4141 -13.4074 -13.3968
   -13.3881 -13.3811 -13.3747 -13.3606 -13.3578 -13.3023 -13.2905 -13.2839
   -13.2774 -13.2488 -13.2463 -13.2122 -13.2018 -13.1944 -13.1859 -13.1826
   -13.1754 -13.1694 -13.1622 -13.1391 -13.1346 -13.1298 -13.1150 -13.1110
   -13.1030 -13.0887 -13.0806 -13.0662 -13.0538 -13.0458 -13.0322 -13.0170
     2.2911   3.2634   3.4475   3.6007   4.0873   4.2282   6.1251   6.1992
[...]
     1.0000   1.0000   1.0000   1.0000   1.0000   1.0000   1.0000   1.0000
     1.0000   1.0000   1.0000   1.0000   1.0000   1.0000   1.0000   1.0000
     1.0000   1.0000   1.0001   1.0002   1.0244   1.0822   1.0525   1.0298
     0.6406   0.0404   0.0099   0.0051   0.0000   0.0000   0.0000   0.0000
     0.0000   0.0000   0.0000   0.0000   0.0000   0.0000   0.0000   0.0000
     0.0000   0.0000   0.0000

          k = 0.3333-0.3406-0.9798 ( 14636 PWs)   bands (ev):

   -35.1664 -35.1441 -35.1429 -35.1187 -35.1147 -35.1055 -35.1029 -35.0989
   -35.0956 -35.0901 -35.0841 -35.0680 -13.4377 -13.4189 -13.4097 -13.4010
   -13.3911 -13.3710 -13.3654 -13.3577 -13.3491 -13.3344 -13.3163 -13.3056
   -13.2907 -13.2755 -13.2606 -13.2408 -13.2256 -13.2194 -13.2094 -13.1952
   -13.1531 -13.1471 -13.1398 -13.1329 -13.1228 -13.1171 -13.1111 -13.0981
   -13.0806 -13.0676 -13.0637 -13.0582 -13.0450 -13.0429 -13.0300 -13.0254
     2.9949   3.1540   3.3927   3.5479   4.6527   4.7326   5.5063   5.5484
     6.7699   6.8234   6.9141   7.0353   8.7481   8.8926   8.9314   8.9743
     9.2527   9.3300   9.4248   9.5315   9.6157   9.7237   9.9128  10.0074
    10.5795  10.6120  10.6728  10.7720  10.8606  10.9232  11.0130  11.0931
    11.3250  11.4671  11.5661  11.6973  12.0774  12.2001  12.2399  12.3362
    12.4236  12.5050  12.5534  12.5952  13.0051  13.1265  13.1867  13.2890
    13.8753  14.0360  14.0865  14.1789  14.2094  14.3199  14.6125  14.6321
    14.7487  14.7898  14.9681  15.0343  15.1011  15.2324  15.3166  15.4252
    15.5738  15.7465  15.8301

     occupation numbers 
     1.0000   1.0000   1.0000   1.0000   1.0000   1.0000   1.0000   1.0000
     1.0000   1.0000   1.0000   1.0000   1.0000   1.0000   1.0000   1.0000
     1.0000   1.0000   1.0000   1.0000   1.0000   1.0000   1.0000   1.0000
     1.0000   1.0000   1.0000   1.0000   1.0000   1.0000   1.0000   1.0000
     1.0000   1.0000   1.0000   1.0000   1.0000   1.0000   1.0000   1.0000
     1.0000   1.0000   1.0000   1.0000   1.0000   1.0000   1.0000   1.0000
     1.0000   1.0000   1.0000   1.0000   1.0000   1.0000   1.0000   1.0000
     1.0000   1.0000   1.0000   1.0000   1.0000   1.0000   1.0000   1.0000
     1.0000   1.0000   1.0000   1.0000   1.0000   1.0000   1.0000   1.0000
     1.0000   1.0000   1.0000   1.0000   1.0000   1.0000   1.0000   1.0000
     1.0000   1.0000   1.0000   1.0000   1.0000   1.0000   1.0000   1.0000
     1.0000   1.0000   1.0000   1.0000   1.0258   1.0642   1.0804   1.0630
     0.0295   0.0026   0.0011   0.0002   0.0001   0.0000   0.0000   0.0000
     0.0000   0.0000   0.0000   0.0000   0.0000   0.0000   0.0000   0.0000
     0.0000   0.0000   0.0000

          k = 0.3333-1.0831 0.9798 ( 14638 PWs)   bands (ev):

   -35.1663 -35.1438 -35.1432 -35.1181 -35.1156 -35.1054 -35.1028 -35.0989
   -35.0956 -35.0902 -35.0840 -35.0679 -13.4397 -13.4214 -13.4090 -13.3984
   -13.3849 -13.3743 -13.3607 -13.3565 -13.3517 -13.3390 -13.3221 -13.3013
   -13.2873 -13.2743 -13.2583 -13.2405 -13.2322 -13.2143 -13.2125 -13.1956
   -13.1527 -13.1482 -13.1413 -13.1318 -13.1249 -13.1182 -13.1079 -13.0969
   -13.0804 -13.0739 -13.0647 -13.0539 -13.0452 -13.0404 -13.0332 -13.0225
     3.0393   3.1226   3.4194   3.5153   4.6641   4.7173   5.4890   5.5643
     6.7018   6.8049   6.9289   7.0763   8.6987   8.7709   8.9607   9.1118
     9.2346   9.3234   9.4596   9.6566   9.6732   9.7920   9.8429   9.9070
    10.5340  10.6073  10.6890  10.7343  10.7823  10.9506  10.9943  11.1400
    11.2956  11.4119  11.6263  11.8175  12.0673  12.1447  12.2113  12.3313
    12.3783  12.4891  12.5951  12.7533  12.9183  13.1221  13.2431  13.3885
    13.7265  13.8664  14.1416  14.2018  14.2501  14.2989  14.5289  14.6535
    14.7723  14.8661  15.0332  15.0660  15.1621  15.2293  15.2907  15.4641
    15.4938  15.7205  15.8259

     occupation numbers 
     1.0000   1.0000   1.0000   1.0000   1.0000   1.0000   1.0000   1.0000
     1.0000   1.0000   1.0000   1.0000   1.0000   1.0000   1.0000   1.0000
     1.0000   1.0000   1.0000   1.0000   1.0000   1.0000   1.0000   1.0000
     1.0000   1.0000   1.0000   1.0000   1.0000   1.0000   1.0000   1.0000
     1.0000   1.0000   1.0000   1.0000   1.0000   1.0000   1.0000   1.0000
     1.0000   1.0000   1.0000   1.0000   1.0000   1.0000   1.0000   1.0000
     1.0000   1.0000   1.0000   1.0000   1.0000   1.0000   1.0000   1.0000
     1.0000   1.0000   1.0000   1.0000   1.0000   1.0000   1.0000   1.0000
     1.0000   1.0000   1.0000   1.0000   1.0000   1.0000   1.0000   1.0000
     1.0000   1.0000   1.0000   1.0000   1.0000   1.0000   1.0000   1.0000
     1.0000   1.0000   1.0000   1.0000   1.0000   1.0000   1.0000   1.0000
     1.0000   1.0000   1.0000   1.0009   1.0099   1.0628   1.0811   0.9419
     0.1539   0.0330   0.0004   0.0001   0.0000   0.0000   0.0000   0.0000
     0.0000   0.0000   0.0000   0.0000   0.0000   0.0000   0.0000   0.0000
     0.0000   0.0000   0.0000

          k = 0.3333-1.0212 0.8165 ( 14627 PWs)   bands (ev):

   -35.1675 -35.1442 -35.1429 -35.1197 -35.1160 -35.1055 -35.1029 -35.0992
   -35.0944 -35.0892 -35.0839 -35.0667 -13.4391 -13.4222 -13.4042 -13.3911
   -13.3774 -13.3731 -13.3620 -13.3566 -13.3448 -13.3406 -13.3238 -13.3012
   -13.2817 -13.2641 -13.2579 -13.2419 -13.2367 -13.2157 -13.2104 -13.1958
   -13.1599 -13.1566 -13.1449 -13.1322 -13.1284 -13.1179 -13.1084 -13.0965
   -13.0890 -13.0746 -13.0689 -13.0637 -13.0411 -13.0364 -13.0290 -13.0194
     3.0130   3.0954   3.3918   3.4928   4.5966   4.7306   5.4227   5.5810
     6.6751   6.7982   6.9528   7.1539   8.6758   8.7340   8.9940   9.1538
     9.1967   9.3231   9.6625   9.6989   9.7440   9.8088   9.8549   9.9389
    10.5623  10.6000  10.6499  10.7333  10.8046  10.8792  11.0130  11.1528
    11.2550  11.3627  11.6428  11.8445  11.9656  12.0857  12.1782  12.2609
    12.2956  12.5630  12.6905  12.8572  12.9152  13.1843  13.3666  13.4399
    13.5170  13.6575  14.0491  14.0826  14.1079  14.4241  14.5278  14.7270
    15.0009  15.0553  15.1043  15.2047  15.2536  15.3150  15.3749  15.5270
    15.6513  15.7152  15.8651

     occupation numbers 
     1.0000   1.0000   1.0000   1.0000   1.0000   1.0000   1.0000   1.0000
     1.0000   1.0000   1.0000   1.0000   1.0000   1.0000   1.0000   1.0000
     1.0000   1.0000   1.0000   1.0000   1.0000   1.0000   1.0000   1.0000
     1.0000   1.0000   1.0000   1.0000   1.0000   1.0000   1.0000   1.0000
     1.0000   1.0000   1.0000   1.0000   1.0000   1.0000   1.0000   1.0000
     1.0000   1.0000   1.0000   1.0000   1.0000   1.0000   1.0000   1.0000
     1.0000   1.0000   1.0000   1.0000   1.0000   1.0000   1.0000   1.0000
     1.0000   1.0000   1.0000   1.0000   1.0000   1.0000   1.0000   1.0000
     1.0000   1.0000   1.0000   1.0000   1.0000   1.0000   1.0000   1.0000
     1.0000   1.0000   1.0000   1.0000   1.0000   1.0000   1.0000   1.0000
     1.0000   1.0000   1.0000   1.0000   1.0000   1.0000   1.0000   1.0000
     1.0000   1.0000   1.0003   1.0044   1.0095   1.0800   0.9791   0.8337
     0.6325   0.2747   0.0021   0.0011   0.0007   0.0000   0.0000   0.0000
     0.0000   0.0000   0.0000   0.0000   0.0000   0.0000   0.0000   0.0000
     0.0000   0.0000   0.0000

          k = 0.3333-0.9593 0.6532 ( 14634 PWs)   bands (ev):

   -35.1693 -35.1453 -35.1422 -35.1218 -35.1175 -35.1056 -35.1026 -35.0990
   -35.0926 -35.0882 -35.0830 -35.0649 -13.4348 -13.4160 -13.4000 -13.3855
   -13.3773 -13.3680 -13.3597 -13.3506 -13.3432 -13.3324 -13.3207 -13.2934
   -13.2883 -13.2625 -13.2516 -13.2389 -13.2283 -13.2195 -13.2051 -13.1950
   -13.1778 -13.1722 -13.1448 -13.1389 -13.1340 -13.1239 -13.1129 -13.1009
   -13.0921 -13.0871 -13.0684 -13.0611 -13.0406 -13.0355 -13.0264 -13.0143
     2.9535   3.0563   3.3356   3.4549   4.5301   4.7037   5.3597   5.5564
     6.6977   6.8082   6.9818   7.2608   8.6985   8.7847   8.9327   9.0185
     9.2639   9.5253   9.6574   9.7078   9.8185   9.8999   9.9825  10.0246
    10.4652  10.6391  10.6999  10.7595  10.8243  10.9039  10.9934  11.1366
    11.2150  11.3590  11.5916  11.7009  11.8845  12.0949  12.1231  12.2160
    12.4430  12.5071  12.5940  12.7657  12.8365  13.1982  13.2700  13.3940
    13.7127  13.8599  13.9242  14.1169  14.2314  14.5210  14.6511  14.7747
    14.9286  15.1396  15.1908  15.2038  15.3001  15.3847  15.5397  15.6884
    15.8099  15.8929  16.0540

     occupation numbers 
     1.0000   1.0000   1.0000   1.0000   1.0000   1.0000   1.0000   1.0000
     1.0000   1.0000   1.0000   1.0000   1.0000   1.0000   1.0000   1.0000
     1.0000   1.0000   1.0000   1.0000   1.0000   1.0000   1.0000   1.0000
     1.0000   1.0000   1.0000   1.0000   1.0000   1.0000   1.0000   1.0000
     1.0000   1.0000   1.0000   1.0000   1.0000   1.0000   1.0000   1.0000
     1.0000   1.0000   1.0000   1.0000   1.0000   1.0000   1.0000   1.0000
     1.0000   1.0000   1.0000   1.0000   1.0000   1.0000   1.0000   1.0000
     1.0000   1.0000   1.0000   1.0000   1.0000   1.0000   1.0000   1.0000
     1.0000   1.0000   1.0000   1.0000   1.0000   1.0000   1.0000   1.0000
     1.0000   1.0000   1.0000   1.0000   1.0000   1.0000   1.0000   1.0000
     1.0000   1.0000   1.0000   1.0000   1.0000   1.0000   1.0000   1.0000
     1.0000   1.0000   1.0000   1.0011   1.0032   1.0821   1.0730   0.9318
     0.1745   0.0359   0.0151   0.0006   0.0001   0.0000   0.0000   0.0000
     0.0000   0.0000   0.0000   0.0000   0.0000   0.0000   0.0000   0.0000
     0.0000   0.0000   0.0000

          k = 0.3333-0.8975 0.4899 ( 14645 PWs)   bands (ev):

   -35.1714 -35.1466 -35.1417 -35.1239 -35.1195 -35.1060 -35.1023 -35.0979
   -35.0914 -35.0869 -35.0815 -35.0630 -13.4273 -13.4059 -13.3952 -13.3846
   -13.3721 -13.3671 -13.3533 -13.3436 -13.3372 -13.3255 -13.3171 -13.3053
   -13.2726 -13.2569 -13.2435 -13.2358 -13.2258 -13.2166 -13.2042 -13.1961
   -13.1906 -13.1842 -13.1612 -13.1466 -13.1383 -13.1327 -13.1185 -13.1102
   -13.1012 -13.0825 -13.0743 -13.0548 -13.0449 -13.0342 -13.0262 -13.0079
     2.9029   2.9923   3.2802   3.3889   4.4812   4.6422   5.3131   5.4985
     6.7645   6.8326   7.0086   7.3694   8.6978   8.7763   8.9351   9.0332
     9.4325   9.5731   9.6315   9.7326   9.8995  10.0252  10.0692  10.1145
    10.4002  10.5887  10.6928  10.7845  10.8973  10.9304  11.0244  11.1103
    11.1894  11.4275  11.4989  11.5480  11.8480  12.0794  12.1285  12.1953
    12.2532  12.5595  12.6207  12.6564  12.7306  13.1010  13.1688  13.3116
    13.7618  14.0769  14.1182  14.2175  14.5926  14.6961  14.7399  14.7855
    15.0556  15.1253  15.1594  15.2267  15.3485  15.4513  15.7163  15.8187
    15.8989  16.0856  16.1347

     occupation numbers 
     1.0000   1.0000   1.0000   1.0000   1.0000   1.0000   1.0000   1.0000
     1.0000   1.0000   1.0000   1.0000   1.0000   1.0000   1.0000   1.0000
     1.0000   1.0000   1.0000   1.0000   1.0000   1.0000   1.0000   1.0000
     1.0000   1.0000   1.0000   1.0000   1.0000   1.0000   1.0000   1.0000
     1.0000   1.0000   1.0000   1.0000   1.0000   1.0000   1.0000   1.0000
     1.0000   1.0000   1.0000   1.0000   1.0000   1.0000   1.0000   1.0000
     1.0000   1.0000   1.0000   1.0000   1.0000   1.0000   1.0000   1.0000
     1.0000   1.0000   1.0000   1.0000   1.0000   1.0000   1.0000   1.0000
     1.0000   1.0000   1.0000   1.0000   1.0000   1.0000   1.0000   1.0000
     1.0000   1.0000   1.0000   1.0000   1.0000   1.0000   1.0000   1.0000
     1.0000   1.0000   1.0000   1.0000   1.0000   1.0000   1.0000   1.0000
     1.0000   1.0000   1.0001   1.0001   1.0006   1.0555   1.0767   1.0460
     0.1093   0.0013   0.0006   0.0001   0.0000   0.0000   0.0000   0.0000
     0.0000   0.0000   0.0000   0.0000   0.0000   0.0000   0.0000   0.0000
     0.0000   0.0000   0.0000

          k = 0.3333-0.8356 0.3266 ( 14645 PWs)   bands (ev):

   -35.1731 -35.1477 -35.1415 -35.1257 -35.1210 -35.1064 -35.1020 -35.0967
   -35.0910 -35.0851 -35.0803 -35.0616 -13.4209 -13.3960 -13.3877 -13.3790
   -13.3716 -13.3593 -13.3496 -13.3406 -13.3327 -13.3267 -13.3128 -13.3054
   -13.2588 -13.2473 -13.2394 -13.2329 -13.2276 -13.2183 -13.2140 -13.1983
   -13.1929 -13.1895 -13.1680 -13.1557 -13.1497 -13.1396 -13.1285 -13.1131
   -13.0996 -13.0919 -13.0726 -13.0619 -13.0474 -13.0301 -13.0241 -13.0039
     2.8678   2.9218   3.2380   3.3148   4.4589   4.5637   5.2910   5.4246
     6.8450   6.8783   7.0264   7.4242   8.6122   8.8570   9.0340   9.1541
     9.4816   9.5512   9.6785   9.8021   9.9638  10.0444  10.0851  10.1103
    10.4243  10.6262  10.7739  10.7942  10.8250  10.9587  11.0452  11.1117
    11.1806  11.3962  11.4438  11.4957  11.8396  12.0046  12.0716  12.1397
    12.2396  12.3585  12.6395  12.6834  12.7777  12.9898  13.0907  13.3581
    13.6955  13.8815  14.2595  14.6143  14.7282  14.7711  14.9483  15.0297
    15.0778  15.1991  15.3016  15.3680  15.5032  15.5420  15.7070  15.9457
    16.0004  16.0768  16.1966

     occupation numbers 
     1.0000   1.0000   1.0000   1.0000   1.0000   1.0000   1.0000   1.0000
     1.0000   1.0000   1.0000   1.0000   1.0000   1.0000   1.0000   1.0000
     1.0000   1.0000   1.0000   1.0000   1.0000   1.0000   1.0000   1.0000
     1.0000   1.0000   1.0000   1.0000   1.0000   1.0000   1.0000   1.0000
     1.0000   1.0000   1.0000   1.0000   1.0000   1.0000   1.0000   1.0000
     1.0000   1.0000   1.0000   1.0000   1.0000   1.0000   1.0000   1.0000
     1.0000   1.0000   1.0000   1.0000   1.0000   1.0000   1.0000   1.0000
     1.0000   1.0000   1.0000   1.0000   1.0000   1.0000   1.0000   1.0000
     1.0000   1.0000   1.0000   1.0000   1.0000   1.0000   1.0000   1.0000
     1.0000   1.0000   1.0000   1.0000   1.0000   1.0000   1.0000   1.0000
     1.0000   1.0000   1.0000   1.0000   1.0000   1.0000   1.0000   1.0000
     1.0000   1.0000   1.0001   1.0002   1.0013   1.0221   1.0520   0.9919
     0.2026   0.0271   0.0000   0.0000   0.0000   0.0000   0.0000   0.0000
     0.0000   0.0000   0.0000   0.0000   0.0000   0.0000   0.0000   0.0000
     0.0000   0.0000   0.0000

          k = 0.3333-0.7737 0.1633 ( 14652 PWs)   bands (ev):

   -35.1743 -35.1486 -35.1413 -35.1270 -35.1220 -35.1068 -35.1016 -35.0959
   -35.0910 -35.0835 -35.0796 -35.0606 -13.4181 -13.3887 -13.3798 -13.3749
   -13.3678 -13.3530 -13.3484 -13.3388 -13.3310 -13.3263 -13.3108 -13.3000
   -13.2531 -13.2495 -13.2418 -13.2339 -13.2268 -13.2218 -13.2131 -13.2008
   -13.1911 -13.1843 -13.1742 -13.1698 -13.1502 -13.1419 -13.1311 -13.1215
   -13.1023 -13.0913 -13.0805 -13.0689 -13.0447 -13.0295 -13.0204 -13.0025
     2.8102   2.9021   3.1924   3.2827   4.4641   4.4908   5.2967   5.3534
     6.8775   6.9599   7.0510   7.3819   8.6866   8.9717   9.0504   9.3045
     9.3823   9.5513   9.7562   9.8602   9.9273  10.0199  10.0703  10.1116
    10.4204  10.6723  10.7914  10.8327  10.9067  11.0314  11.0448  11.1086
    11.1434  11.3429  11.3858  11.4271  11.8228  11.8762  12.0913  12.1303
    12.1954  12.2346  12.6507  12.7008  12.7704  12.9211  13.0783  13.4137
    13.6675  13.7316  14.3890  14.5954  14.7446  14.9118  15.0519  15.1352
    15.2437  15.3294  15.3988  15.5514  15.6313  15.7013  15.8983  15.9600
    15.9973  16.0713  16.2202

     occupation numbers 
     1.0000   1.0000   1.0000   1.0000   1.0000   1.0000   1.0000   1.0000
     1.0000   1.0000   1.0000   1.0000   1.0000   1.0000   1.0000   1.0000
     1.0000   1.0000   1.0000   1.0000   1.0000   1.0000   1.0000   1.0000
     1.0000   1.0000   1.0000   1.0000   1.0000   1.0000   1.0000   1.0000
     1.0000   1.0000   1.0000   1.0000   1.0000   1.0000   1.0000   1.0000
     1.0000   1.0000   1.0000   1.0000   1.0000   1.0000   1.0000   1.0000
     1.0000   1.0000   1.0000   1.0000   1.0000   1.0000   1.0000   1.0000
     1.0000   1.0000   1.0000   1.0000   1.0000   1.0000   1.0000   1.0000
     1.0000   1.0000   1.0000   1.0000   1.0000   1.0000   1.0000   1.0000
     1.0000   1.0000   1.0000   1.0000   1.0000   1.0000   1.0000   1.0000
     1.0000   1.0000   1.0000   1.0000   1.0000   1.0000   1.0000   1.0000
     1.0000   1.0000   1.0001   1.0003   1.0011   1.0102   1.0477   0.8924
     0.2544   0.1468   0.0000   0.0000   0.0000   0.0000   0.0000   0.0000
     0.0000   0.0000   0.0000   0.0000   0.0000   0.0000   0.0000   0.0000
     0.0000   0.0000   0.0000

     the Fermi energy is    13.6030 ev

!    total energy              =   -1328.48095653 Ry
     Harris-Foulkes estimate   =   -1328.48095658 Ry
     estimated scf accuracy    <       0.00000010 Ry

     The total energy is the sum of the following terms:

     one-electron contribution =    -198.61671162 Ry
     hartree contribution      =     186.12773552 Ry
     xc contribution           =    -289.11009511 Ry
     ewald contribution        =   -1026.88514288 Ry
     smearing contrib. (-TS)   =       0.00325756 Ry

     total magnetization       =     0.00 Bohr mag/cell
     absolute magnetization    =     0.00 Bohr mag/cell

     convergence has been achieved in  19 iterations

     Writing output data file aiida.save
 
     init_run     :     24.95s CPU     26.35s WALL (       1 calls)
     electrons    :    623.32s CPU    653.23s WALL (       1 calls)

     Called by init_run:
     wfcinit      :     10.43s CPU     10.66s WALL (       1 calls)
     wfcinit:atom :      0.04s CPU      0.04s WALL (       6 calls)
     wfcinit:wfcr :      9.64s CPU      9.87s WALL (       6 calls)
     potinit      :      2.48s CPU      2.56s WALL (       1 calls)

     Called by electrons:
     c_bands      :    424.03s CPU    443.51s WALL (      19 calls)
     sum_band     :    132.45s CPU    139.71s WALL (      19 calls)
     v_of_rho     :     18.92s CPU     19.24s WALL (      20 calls)
     v_h          :      0.38s CPU      0.40s WALL (      20 calls)
     v_xc         :     18.54s CPU     18.84s WALL (      20 calls)
     newd         :     46.14s CPU     48.35s WALL (      20 calls)
     mix_rho      :      2.17s CPU      2.24s WALL (      19 calls)

     Called by c_bands:
     init_us_2    :      3.43s CPU      3.44s WALL (     234 calls)
     cegterg      :    341.87s CPU    353.57s WALL (     114 calls)

     Called by sum_band:
     sum_band:bec :      0.11s CPU      0.11s WALL (     114 calls)
     addusdens    :     80.52s CPU     86.61s WALL (      19 calls)

     Called by *egterg:
     h_psi        :    225.77s CPU    229.09s WALL (     544 calls)
     s_psi        :     21.38s CPU     21.40s WALL (     544 calls)
     g_psi        :      0.78s CPU      0.79s WALL (     424 calls)
     cdiaghg      :     57.98s CPU     61.84s WALL (     538 calls)
     cegterg:over :     15.96s CPU     16.01s WALL (     424 calls)
     cegterg:upda :     14.75s CPU     14.81s WALL (     424 calls)
     cegterg:last :      4.58s CPU      4.61s WALL (     114 calls)
     cdiaghg:chol :      1.28s CPU      1.95s WALL (     538 calls)
     cdiaghg:inve :      0.52s CPU      0.53s WALL (     538 calls)
     cdiaghg:para :      4.81s CPU      5.82s WALL (    1076 calls)

     Called by h_psi:
     h_psi:pot    :    224.87s CPU    228.19s WALL (     544 calls)
     h_psi:calbec :     19.38s CPU     19.56s WALL (     544 calls)
     vloc_psi     :    183.89s CPU    186.98s WALL (     544 calls)
     add_vuspsi   :     21.59s CPU     21.62s WALL (     544 calls)

     General routines
     calbec       :     26.44s CPU     26.70s WALL (     658 calls)
     fft          :      7.99s CPU      9.26s WALL (     610 calls)
     ffts         :      0.34s CPU      0.36s WALL (      78 calls)
     fftw         :    178.37s CPU    181.57s WALL (   81510 calls)
     interpolate  :      1.54s CPU      1.64s WALL (      78 calls)
     davcio       :      0.00s CPU      0.40s WALL (       6 calls)
 
     Parallel routines
     fft_scatter  :     52.98s CPU     54.53s WALL (   82198 calls)
 
     PWSCF        : 11m 4.79s CPU    12m24.28s WALL

 
   This run was terminated on:  17: 8:43  20Apr2017            

=------------------------------------------------------------------------------=
   JOB DONE.
=------------------------------------------------------------------------------=
