rm: cannot remove ‘core*’: No such file or directory

     Program PWSCF v.6.1 starts on  8Aug2017 at 17:29: 5 

     This program is part of the open-source Quantum ESPRESSO suite
     for quantum simulation of materials; please cite
         "P. Giannozzi et al., J. Phys.:Condens. Matter 21 395502 (2009);
          URL http://www.quantum-espresso.org", 
     in publications or presentations arising from this work. More details at
     http://www.quantum-espresso.org/quote

     Parallel version (MPI & OpenMP), running on     160 processor cores
     Number of MPI processes:                16
     Threads/MPI process:                    10
     K-points division:     npool     =      16
     Reading input from pw.in
SIRIUS 4.7, git hash: d75abff3bebe8471eec883d10636ecc565e4a4f2

     Current dimensions of program PWSCF are:
     Max number of different atomic species (ntypx) = 10
     Max number of k-points (npk) =  40000
     Max angular momentum in pseudopotentials (lmaxx) =  3

     Subspace diagonalization in iterative solution of the eigenvalue problem:
     a serial algorithm will be used


   Info: using nr1, nr2, nr3 values from input

     G-vector sticks info
     --------------------
     sticks:   dense  smooth     PW     G-vecs:    dense   smooth      PW
     Sum       24439   12235   3283              2526263   892711  123717



     bravais-lattice index     =            0
     lattice parameter (alat)  =      31.4056  a.u.
     unit-cell volume          =   21903.1443 (a.u.)^3
     number of atoms/cell      =           54
     number of atomic types    =            2
     number of electrons       =       432.00
     number of Kohn-Sham states=          259
     kinetic-energy cutoff     =      45.0000  Ry
     charge density cutoff     =     360.0000  Ry
     convergence threshold     =      5.4E-07
     mixing beta               =       0.3500
     number of iterations used =            8  plain     mixing
     Exchange-correlation      = SLA  PW   PBE  PBE ( 1  4  3  4 0 0)

     celldm(1)=  31.405604  celldm(2)=   0.000000  celldm(3)=   0.000000
     celldm(4)=   0.000000  celldm(5)=   0.000000  celldm(6)=   0.000000

     crystal axes: (cart. coord. in units of alat)
               a(1) = (   1.000000   0.000000   0.000000 )  
               a(2) = (  -0.500000   0.707107  -0.500000 )  
               a(3) = (   0.000000   0.000000   1.000000 )  

     reciprocal axes: (cart. coord. in units 2 pi/alat)
               b(1) = (  1.000000  0.707107 -0.000000 )  
               b(2) = (  0.000000  1.414214  0.000000 )  
               b(3) = ( -0.000000  0.707107  1.000000 )  


     PseudoPot. # 1 for Cs read from file:
     ./pseudo/Cs_pbe_v1.uspp.F.UPF
     MD5 check sum: 3476d69cb178dfad3ffaa59df4e07ca4
     Pseudo is Ultrasoft + core correction, Zval =  9.0
     Generated by new atomic code, or converted to UPF format
     Using radial grid of  905 points,  6 beta functions with: 
                l(1) =   0
                l(2) =   0
                l(3) =   1
                l(4) =   1
                l(5) =   2
                l(6) =   2
     Q(r) pseudized with  6 coefficients,  rinner =    1.500   1.500   1.500
                                                       1.500   1.500

     PseudoPot. # 2 for I  read from file:
     ./pseudo/I_pbe_v1.uspp.F.UPF
     MD5 check sum: 51366c2fb896752a147e77acbb9f6bcb
     Pseudo is Ultrasoft + core correction, Zval =  7.0
     Generated by new atomic code, or converted to UPF format
     Using radial grid of  893 points,  6 beta functions with: 
                l(1) =   0
                l(2) =   0
                l(3) =   1
                l(4) =   1
                l(5) =   2
                l(6) =   2
     Q(r) pseudized with  8 coefficients,  rinner =    1.500   1.500   1.500
                                                       1.500   1.500

     atomic species   valence    mass     pseudopotential
        Cs             9.00   132.90545     Cs( 1.00)
        I              7.00   126.90447     I ( 1.00)

     No symmetry found


                                    s                        frac. trans.

      isym =  1     identity                                     

 cryst.   s( 1) = (     1          0          0      )
                  (     0          1          0      )
                  (     0          0          1      )

 cart.    s( 1) = (  1.0000000  0.0000000  0.0000000 )
                  (  0.0000000  1.0000000  0.0000000 )
                  (  0.0000000  0.0000000  1.0000000 )


   Cartesian axes

     site n.     atom                  positions (a.u.)
         1           Cs  tau(   1) = (  15.7567088  22.0681150  15.6777486  )
         2           Cs  tau(   2) = (  15.5797094  22.1674162  -5.3125422  )
         3           Cs  tau(   3) = (  15.6206425  22.0820821   5.2125602  )
         4           Cs  tau(   4) = (  26.1253071   7.2862844  -5.1490631  )
         5           Cs  tau(   5) = (  26.1782224   7.2681475   5.1650487  )
         6           Cs  tau(   6) = (  -5.2654524   7.5321059  15.7738754  )
         7           Cs  tau(   7) = ( -10.4855889  14.9308094 -10.3868559  )
         8           Cs  tau(   8) = ( -10.3331288  14.7413908   0.0225040  )
         9           Cs  tau(   9) = (  20.8314272  14.9118750  10.4832802  )
        10           Cs  tau(  10) = (  10.3717088   0.0922588  31.3351213  )
        11           Cs  tau(  11) = (  -5.3749842  22.2061828  -5.1790158  )
        12           Cs  tau(  12) = (  10.3859172   0.0742297  21.0396323  )
        13           Cs  tau(  13) = (   5.2820790   7.5457824  -5.2327505  )
        14           Cs  tau(  14) = (   5.2097947   7.2549683   5.2112877  )
        15           Cs  tau(  15) = (   5.3835492   7.4213821  15.6883673  )
        16           Cs  tau(  16) = (  -0.0530397  14.7172458 -10.3572437  )
        17           Cs  tau(  17) = (  -0.0493768  14.6681664  -0.0419924  )
        18           Cs  tau(  18) = (   0.0421442  14.8785765  10.5935445  )
        19           Cs  tau(  19) = (  20.8907429   0.0815275   0.1185830  )
        20           Cs  tau(  20) = (  20.9432845   0.0812971  10.5958413  )
        21           Cs  tau(  21) = (  21.0032837   0.1358437  20.9411899  )
        22           Cs  tau(  22) = (  15.8206137   7.4246678  26.0792601  )
        23           Cs  tau(  23) = (  15.7807894   7.3931748   5.1050845  )
        24           Cs  tau(  24) = (  15.5726632   7.4630480  15.7501000  )
        25           Cs  tau(  25) = (  10.5880232  14.8435362 -10.3844368  )
        26           Cs  tau(  26) = (  10.5710729  14.8772789  -0.0841392  )
        27           Cs  tau(  27) = (  10.5917441  14.8407709  10.3886828  )
        28           I   tau(  28) = (   5.2490891   0.1503857   5.2298787  )
        29           I   tau(  29) = (   5.1073247   0.0035600  15.7848246  )
        30           I   tau(  30) = (   5.1271788   0.1060008  26.1836125  )
        31           I   tau(  31) = (   0.0828421   7.5269935   0.0214818  )
        32           I   tau(  32) = (   0.0465070   7.2925686  10.3756093  )
        33           I   tau(  33) = (   0.0120975   7.4268868  21.0857554  )
        34           I   tau(  34) = (  -5.2343842  14.7976706  -5.3852799  )
        35           I   tau(  35) = (  -5.1763544  14.7510278   5.1053663  )
        36           I   tau(  36) = (  -5.1102776  14.8609467  15.7685486  )
        37           I   tau(  37) = (   0.1247830  22.1725965 -10.3904807  )
        38           I   tau(  38) = (  15.6351237   0.1330706  15.6789976  )
        39           I   tau(  39) = (  15.8053616   0.0280091  26.2788165  )
        40           I   tau(  40) = (  10.3619593   7.3951589  -0.1069788  )
        41           I   tau(  41) = (  10.5692270   7.4208203  10.5797802  )
        42           I   tau(  42) = (  10.3714655   7.2933621  20.9764299  )
        43           I   tau(  43) = (   5.1095655  14.8899995  -5.2402451  )
        44           I   tau(  44) = (   5.1208868  14.8587383   5.1500994  )
        45           I   tau(  45) = (   5.1460214  14.8064135  15.8255404  )
        46           I   tau(  46) = (  10.5842630  22.1201890 -10.5121872  )
        47           I   tau(  47) = (  10.3322788  22.1437979   0.0167324  )
        48           I   tau(  48) = (  26.2273575   0.0969202  26.0697348  )
        49           I   tau(  49) = (  20.8014627   7.3355475  -0.0003023  )
        50           I   tau(  50) = (  20.8961625   7.3353978  10.5977473  )
        51           I   tau(  51) = (  20.8597873   7.5288633  20.9073676  )
        52           I   tau(  52) = (  15.7971746  14.9181078  -5.2011424  )
        53           I   tau(  53) = (  15.8408514  14.8659140   5.2268221  )
        54           I   tau(  54) = (  15.6550028  14.9414326  15.6593713  )

   Crystallographic axes

     site n.     atom                  positions (cryst. coord.)
         1           Cs  tau(   1) = (  0.9985868  0.9937407  0.9960726  )
         2           Cs  tau(   2) = (  0.9951867  0.9982123  0.3299471  )
         3           Cs  tau(   3) = (  0.9945687  0.9943697  0.6631603  )
         4           Cs  tau(   4) = (  0.9959206  0.3281058  0.0000993  )
         5           Cs  tau(   5) = (  0.9971971  0.3272891  0.3281072  )
         6           Cs  tau(   6) = (  0.0019280  0.3391753  0.6718507  )
         7           Cs  tau(   7) = (  0.0022954  0.6723435  0.0054392  )
         8           Cs  tau(   8) = (  0.0028851  0.6638138  0.3326235  )
         9           Cs  tau(   9) = (  0.9990483  0.6714908  0.6695483  )
        10           Cs  tau(  10) = (  0.3323275  0.0041545  0.9998330  )
        11           Cs  tau(  11) = (  0.3288317  0.9999580  0.3350716  )
        12           Cs  tau(  12) = (  0.3323740  0.0033426  0.6716037  )
        13           Cs  tau(  13) = (  0.3380847  0.3397912  0.0032772  )
        14           Cs  tau(  14) = (  0.3292352  0.3266957  0.3292828  )
        15           Cs  tau(  15) = (  0.3385147  0.3341894  0.6666351  )
        16           Cs  tau(  16) = (  0.3296744  0.6627266  0.0015736  )
        17           Cs  tau(  17) = (  0.3286860  0.6605165  0.3289212  )
        18           Cs  tau(  18) = (  0.3363376  0.6699914  0.6723095  )
        19           Cs  tau(  19) = (  0.6670272  0.0036712  0.0056115  )
        20           Cs  tau(  20) = (  0.6686950  0.0036609  0.3392174  )
        21           Cs  tau(  21) = (  0.6718336  0.0061171  0.6698564  )
        22           Cs  tau(  22) = (  0.6709200  0.3343373  0.9975701  )
        23           Cs  tau(  23) = (  0.6689428  0.3329192  0.3290129  )
        24           Cs  tau(  24) = (  0.6638890  0.3360656  0.6695388  )
        25           Cs  tau(  25) = (  0.6713448  0.6684135  0.0035512  )
        26           Cs  tau(  26) = (  0.6715648  0.6699330  0.3322874  )
        27           Cs  tau(  27) = (  0.6714010  0.6682890  0.6649352  )
        28           I   tau(  28) = (  0.1705246  0.0067720  0.1699129  )
        29           I   tau(  29) = (  0.1627048  0.0001603  0.5026919  )
        30           I   tau(  30) = (  0.1656435  0.0047733  0.8361108  )
        31           I   tau(  31) = (  0.1721104  0.3389451  0.1701566  )
        32           I   tau(  32) = (  0.1656753  0.3283888  0.4945689  )
        33           I   tau(  33) = (  0.1676038  0.3344373  0.8386197  )
        34           I   tau(  34) = (  0.1665037  0.6663482  0.1616990  )
        35           I   tau(  35) = (  0.1673013  0.6642478  0.4946862  )
        36           I   tau(  36) = (  0.1718801  0.6691975  0.8366922  )
        37           I   tau(  37) = (  0.5031961  0.9984456  0.1683748  )
        38           I   tau(  38) = (  0.5008411  0.0059923  0.5022382  )
        39           I   tau(  39) = (  0.5038963  0.0012613  0.8373863  )
        40           I   tau(  40) = (  0.4964441  0.3330085  0.1630979  )
        41           I   tau(  41) = (  0.5036216  0.3341641  0.5039576  )
        42           I   tau(  42) = (  0.4944548  0.3284246  0.8321322  )
        43           I   tau(  43) = (  0.4979489  0.6705058  0.1683959  )
        44           I   tau(  44) = (  0.4976055  0.6690981  0.4985357  )
        45           I   tau(  45) = (  0.4972277  0.6667419  0.8372791  )
        46           I   tau(  46) = (  0.8350611  0.9960856  0.1633195  )
        47           I   tau(  47) = (  0.8275691  0.9971488  0.4991072  )
        48           I   tau(  48) = (  0.8372993  0.0043644  0.8322804  )
        49           I   tau(  49) = (  0.8275108  0.3303242  0.1651525  )
        50           I   tau(  50) = (  0.8305229  0.3303174  0.5026064  )
        51           I   tau(  51) = (  0.8337205  0.3390293  0.8352356  )
        52           I   tau(  52) = (  0.8388907  0.6717715  0.1702738  )
        53           I   tau(  53) = (  0.8391063  0.6694212  0.5011402  )
        54           I   tau(  54) = (  0.8348889  0.6728218  0.8350280  )

     number of k points=   220  Marzari-Vanderbilt smearing, width (Ry)=  0.0200
                       cart. coord. in units 2pi/alat
        k(    1) = (   0.0000000   0.0000000   0.0000000), wk =   0.0133333
        k(    2) = (   0.0000000   0.1414214   0.2000000), wk =   0.0133333
        k(    3) = (   0.0000000   0.2828427   0.4000000), wk =   0.0133333
        k(    4) = (   0.0000000   0.2357023   0.0000000), wk =   0.0266667
        k(    5) = (   0.0000000   0.3771236   0.2000000), wk =   0.0133333
        k(    6) = (   0.0000000   0.5185450   0.4000000), wk =   0.0133333
        k(    7) = (   0.0000000  -0.0471405  -0.4000000), wk =   0.0133333
        k(    8) = (   0.0000000   0.0942809  -0.2000000), wk =   0.0133333
        k(    9) = (   0.0000000   0.4714045   0.0000000), wk =   0.0266667
        k(   10) = (   0.0000000   0.6128259   0.2000000), wk =   0.0133333
        k(   11) = (   0.0000000   0.7542472   0.4000000), wk =   0.0133333
        k(   12) = (   0.0000000   0.1885618  -0.4000000), wk =   0.0133333
        k(   13) = (   0.0000000   0.3299832  -0.2000000), wk =   0.0133333
        k(   14) = (   0.0000000  -0.7071068   0.0000000), wk =   0.0133333
        k(   15) = (   0.0000000  -0.5656854   0.2000000), wk =   0.0133333
        k(   16) = (   0.0000000  -0.4242641   0.4000000), wk =   0.0133333
        k(   17) = (   0.2000000   0.2828427   0.2000000), wk =   0.0066667
        k(   18) = (   0.2000000   0.4242641   0.4000000), wk =   0.0066667
        k(   19) = (   0.2000000  -0.1414214  -0.4000000), wk =   0.0066667
        k(   20) = (   0.2000000   0.0000000  -0.2000000), wk =   0.0133333
        k(   21) = (   0.2000000   0.5185450   0.2000000), wk =   0.0066667
        k(   22) = (   0.2000000   0.6599663   0.4000000), wk =   0.0066667
        k(   23) = (   0.2000000   0.0942809  -0.4000000), wk =   0.0066667
        k(   24) = (   0.2000000   0.2357023  -0.2000000), wk =   0.0133333
        k(   25) = (   0.2000000   0.7542472   0.2000000), wk =   0.0066667
        k(   26) = (   0.2000000   0.8956686   0.4000000), wk =   0.0066667
        k(   27) = (   0.2000000   0.3299832  -0.4000000), wk =   0.0066667
        k(   28) = (   0.2000000   0.4714045  -0.2000000), wk =   0.0133333
        k(   29) = (   0.2000000  -0.4242641   0.2000000), wk =   0.0066667
        k(   30) = (   0.2000000  -0.2828427   0.4000000), wk =   0.0066667
        k(   31) = (   0.2000000  -0.8485281  -0.4000000), wk =   0.0066667
        k(   32) = (   0.2000000  -0.7071068  -0.2000000), wk =   0.0133333
        k(   33) = (   0.2000000  -0.1885618   0.2000000), wk =   0.0066667
        k(   34) = (   0.2000000  -0.0471405   0.4000000), wk =   0.0066667
        k(   35) = (   0.2000000  -0.6128259  -0.4000000), wk =   0.0066667
        k(   36) = (   0.2000000   0.0471405   0.2000000), wk =   0.0066667
        k(   37) = (   0.2000000   0.1885618   0.4000000), wk =   0.0066667
        k(   38) = (   0.2000000  -0.3771236  -0.4000000), wk =   0.0066667
        k(   39) = (   0.4000000   0.5656854   0.4000000), wk =   0.0066667
        k(   40) = (   0.4000000  -0.0000000  -0.4000000), wk =   0.0133333
        k(   41) = (   0.4000000   0.8013877   0.4000000), wk =   0.0066667
        k(   42) = (   0.4000000   0.2357023  -0.4000000), wk =   0.0133333
        k(   43) = (   0.4000000   1.0370899   0.4000000), wk =   0.0066667
        k(   44) = (   0.4000000   0.4714045  -0.4000000), wk =   0.0133333
        k(   45) = (   0.4000000  -0.1414214   0.4000000), wk =   0.0066667
        k(   46) = (   0.4000000  -0.7071068  -0.4000000), wk =   0.0133333
        k(   47) = (   0.4000000   0.0942809   0.4000000), wk =   0.0066667
        k(   48) = (   0.4000000   0.3299832   0.4000000), wk =   0.0066667
        k(   49) = (   0.0000000  -0.1414214   0.2000000), wk =   0.0133333
        k(   50) = (   0.2000000  -0.1414214   0.0000000), wk =   0.0133333
        k(   51) = (  -0.2000000  -0.1414214   0.0000000), wk =   0.0133333
        k(   52) = (   0.0000000  -0.2828427   0.4000000), wk =   0.0133333
        k(   53) = (   0.4000000  -0.2828427   0.0000000), wk =   0.0133333
        k(   54) = (  -0.4000000  -0.2828427   0.0000000), wk =   0.0133333
        k(   55) = (   0.0000000  -0.3771236   0.2000000), wk =   0.0133333
        k(   56) = (   0.2000000  -0.3771236   0.0000000), wk =   0.0133333
        k(   57) = (  -0.2000000  -0.3771236   0.0000000), wk =   0.0133333
        k(   58) = (   0.0000000  -0.5185450   0.4000000), wk =   0.0133333
        k(   59) = (   0.4000000  -0.5185450   0.0000000), wk =   0.0133333
        k(   60) = (  -0.4000000  -0.5185450   0.0000000), wk =   0.0133333
        k(   61) = (   0.0000000   0.0471405  -0.4000000), wk =   0.0133333
        k(   62) = (  -0.4000000   0.0471405   0.0000000), wk =   0.0133333
        k(   63) = (   0.4000000   0.0471405   0.0000000), wk =   0.0133333
        k(   64) = (   0.0000000  -0.0942809  -0.2000000), wk =   0.0133333
        k(   65) = (  -0.2000000  -0.0942809   0.0000000), wk =   0.0133333
        k(   66) = (   0.2000000  -0.0942809   0.0000000), wk =   0.0133333
        k(   67) = (   0.0000000  -0.6128259   0.2000000), wk =   0.0133333
        k(   68) = (   0.2000000  -0.6128259   0.0000000), wk =   0.0133333
        k(   69) = (  -0.2000000  -0.6128259   0.0000000), wk =   0.0133333
        k(   70) = (   0.0000000  -0.7542472   0.4000000), wk =   0.0133333
        k(   71) = (   0.4000000  -0.7542472   0.0000000), wk =   0.0133333
        k(   72) = (  -0.4000000  -0.7542472   0.0000000), wk =   0.0133333
        k(   73) = (   0.0000000  -0.1885618  -0.4000000), wk =   0.0133333
        k(   74) = (  -0.4000000  -0.1885618   0.0000000), wk =   0.0133333
        k(   75) = (   0.4000000  -0.1885618   0.0000000), wk =   0.0133333
        k(   76) = (   0.0000000  -0.3299832  -0.2000000), wk =   0.0133333
        k(   77) = (  -0.2000000  -0.3299832   0.0000000), wk =   0.0133333
        k(   78) = (   0.2000000  -0.3299832   0.0000000), wk =   0.0133333
        k(   79) = (   0.0000000   0.5656854   0.2000000), wk =   0.0133333
        k(   80) = (   0.2000000   0.5656854   0.0000000), wk =   0.0133333
        k(   81) = (  -0.2000000   0.5656854   0.0000000), wk =   0.0133333
        k(   82) = (   0.0000000   0.4242641   0.4000000), wk =   0.0133333
        k(   83) = (   0.4000000   0.4242641   0.0000000), wk =   0.0133333
        k(   84) = (  -0.4000000   0.4242641   0.0000000), wk =   0.0133333
        k(   85) = (  -0.2000000  -0.2828427   0.2000000), wk =   0.0066667
        k(   86) = (  -0.2000000   0.2828427  -0.2000000), wk =   0.0066667
        k(   87) = (   0.2000000  -0.2828427  -0.2000000), wk =   0.0066667
        k(   88) = (  -0.2000000  -0.4242641   0.4000000), wk =   0.0066667
        k(   89) = (  -0.2000000   0.4242641  -0.4000000), wk =   0.0066667
        k(   90) = (   0.2000000  -0.4242641  -0.4000000), wk =   0.0066667
        k(   91) = (   0.4000000  -0.4242641   0.2000000), wk =   0.0066667
        k(   92) = (  -0.4000000  -0.4242641  -0.2000000), wk =   0.0066667
        k(   93) = (   0.4000000   0.4242641  -0.2000000), wk =   0.0066667
        k(   94) = (  -0.4000000   0.4242641   0.2000000), wk =   0.0066667
        k(   95) = (  -0.2000000   0.1414214  -0.4000000), wk =   0.0066667
        k(   96) = (  -0.2000000  -0.1414214   0.4000000), wk =   0.0066667
        k(   97) = (   0.2000000   0.1414214   0.4000000), wk =   0.0066667
        k(   98) = (  -0.4000000   0.1414214   0.2000000), wk =   0.0066667
        k(   99) = (   0.4000000   0.1414214  -0.2000000), wk =   0.0066667
        k(  100) = (  -0.4000000  -0.1414214  -0.2000000), wk =   0.0066667
        k(  101) = (   0.4000000  -0.1414214   0.2000000), wk =   0.0066667
        k(  102) = (  -0.2000000  -0.0000000  -0.2000000), wk =   0.0133333
        k(  103) = (  -0.2000000  -0.5185450   0.2000000), wk =   0.0066667
        k(  104) = (  -0.2000000   0.5185450  -0.2000000), wk =   0.0066667
        k(  105) = (   0.2000000  -0.5185450  -0.2000000), wk =   0.0066667
        k(  106) = (  -0.2000000  -0.6599663   0.4000000), wk =   0.0066667
        k(  107) = (  -0.2000000   0.6599663  -0.4000000), wk =   0.0066667
        k(  108) = (   0.2000000  -0.6599663  -0.4000000), wk =   0.0066667
        k(  109) = (   0.4000000  -0.6599663   0.2000000), wk =   0.0066667
        k(  110) = (  -0.4000000  -0.6599663  -0.2000000), wk =   0.0066667
        k(  111) = (   0.4000000   0.6599663  -0.2000000), wk =   0.0066667
        k(  112) = (  -0.4000000   0.6599663   0.2000000), wk =   0.0066667
        k(  113) = (  -0.2000000  -0.0942809  -0.4000000), wk =   0.0066667
        k(  114) = (  -0.2000000   0.0942809   0.4000000), wk =   0.0066667
        k(  115) = (   0.2000000  -0.0942809   0.4000000), wk =   0.0066667
        k(  116) = (  -0.4000000  -0.0942809   0.2000000), wk =   0.0066667
        k(  117) = (   0.4000000  -0.0942809  -0.2000000), wk =   0.0066667
        k(  118) = (  -0.4000000   0.0942809  -0.2000000), wk =   0.0066667
        k(  119) = (   0.4000000   0.0942809   0.2000000), wk =   0.0066667
        k(  120) = (  -0.2000000  -0.2357023  -0.2000000), wk =   0.0133333
        k(  121) = (  -0.2000000   0.2357023   0.2000000), wk =   0.0133333
        k(  122) = (   0.2000000  -0.2357023   0.2000000), wk =   0.0133333
        k(  123) = (  -0.2000000  -0.7542472   0.2000000), wk =   0.0066667
        k(  124) = (  -0.2000000   0.7542472  -0.2000000), wk =   0.0066667
        k(  125) = (   0.2000000  -0.7542472  -0.2000000), wk =   0.0066667
        k(  126) = (  -0.2000000  -0.8956686   0.4000000), wk =   0.0066667
        k(  127) = (  -0.2000000   0.8956686  -0.4000000), wk =   0.0066667
        k(  128) = (   0.2000000  -0.8956686  -0.4000000), wk =   0.0066667
        k(  129) = (   0.4000000  -0.8956686   0.2000000), wk =   0.0066667
        k(  130) = (  -0.4000000  -0.8956686  -0.2000000), wk =   0.0066667
        k(  131) = (   0.4000000   0.8956686  -0.2000000), wk =   0.0066667
        k(  132) = (  -0.4000000   0.8956686   0.2000000), wk =   0.0066667
        k(  133) = (  -0.2000000  -0.3299832  -0.4000000), wk =   0.0066667
        k(  134) = (  -0.2000000   0.3299832   0.4000000), wk =   0.0066667
        k(  135) = (   0.2000000  -0.3299832   0.4000000), wk =   0.0066667
        k(  136) = (  -0.4000000  -0.3299832   0.2000000), wk =   0.0066667
        k(  137) = (   0.4000000  -0.3299832  -0.2000000), wk =   0.0066667
        k(  138) = (  -0.4000000   0.3299832  -0.2000000), wk =   0.0066667
        k(  139) = (   0.4000000   0.3299832   0.2000000), wk =   0.0066667
        k(  140) = (  -0.2000000  -0.4714045  -0.2000000), wk =   0.0133333
        k(  141) = (  -0.2000000   0.4714045   0.2000000), wk =   0.0133333
        k(  142) = (   0.2000000  -0.4714045   0.2000000), wk =   0.0133333
        k(  143) = (  -0.2000000   0.4242641   0.2000000), wk =   0.0066667
        k(  144) = (  -0.2000000  -0.4242641  -0.2000000), wk =   0.0066667
        k(  145) = (   0.2000000   0.4242641  -0.2000000), wk =   0.0066667
        k(  146) = (  -0.2000000   0.2828427   0.4000000), wk =   0.0066667
        k(  147) = (  -0.2000000  -0.2828427  -0.4000000), wk =   0.0066667
        k(  148) = (   0.2000000   0.2828427  -0.4000000), wk =   0.0066667
        k(  149) = (   0.4000000   0.2828427   0.2000000), wk =   0.0066667
        k(  150) = (  -0.4000000   0.2828427  -0.2000000), wk =   0.0066667
        k(  151) = (   0.4000000  -0.2828427  -0.2000000), wk =   0.0066667
        k(  152) = (  -0.4000000  -0.2828427   0.2000000), wk =   0.0066667
        k(  153) = (  -0.2000000   0.8485281  -0.4000000), wk =   0.0066667
        k(  154) = (  -0.2000000  -0.8485281   0.4000000), wk =   0.0066667
        k(  155) = (   0.2000000   0.8485281   0.4000000), wk =   0.0066667
        k(  156) = (  -0.4000000   0.8485281   0.2000000), wk =   0.0066667
        k(  157) = (   0.4000000   0.8485281  -0.2000000), wk =   0.0066667
        k(  158) = (  -0.4000000  -0.8485281  -0.2000000), wk =   0.0066667
        k(  159) = (   0.4000000  -0.8485281   0.2000000), wk =   0.0066667
        k(  160) = (  -0.2000000   0.7071068  -0.2000000), wk =   0.0133333
        k(  161) = (  -0.2000000   0.1885618   0.2000000), wk =   0.0066667
        k(  162) = (  -0.2000000  -0.1885618  -0.2000000), wk =   0.0066667
        k(  163) = (   0.2000000   0.1885618  -0.2000000), wk =   0.0066667
        k(  164) = (  -0.2000000   0.0471405   0.4000000), wk =   0.0066667
        k(  165) = (  -0.2000000  -0.0471405  -0.4000000), wk =   0.0066667
        k(  166) = (   0.2000000   0.0471405  -0.4000000), wk =   0.0066667
        k(  167) = (   0.4000000   0.0471405   0.2000000), wk =   0.0066667
        k(  168) = (  -0.4000000   0.0471405  -0.2000000), wk =   0.0066667
        k(  169) = (   0.4000000  -0.0471405  -0.2000000), wk =   0.0066667
        k(  170) = (  -0.4000000  -0.0471405   0.2000000), wk =   0.0066667
        k(  171) = (  -0.2000000   0.6128259  -0.4000000), wk =   0.0066667
        k(  172) = (  -0.2000000  -0.6128259   0.4000000), wk =   0.0066667
        k(  173) = (   0.2000000   0.6128259   0.4000000), wk =   0.0066667
        k(  174) = (  -0.4000000   0.6128259   0.2000000), wk =   0.0066667
        k(  175) = (   0.4000000   0.6128259  -0.2000000), wk =   0.0066667
        k(  176) = (  -0.4000000  -0.6128259  -0.2000000), wk =   0.0066667
        k(  177) = (   0.4000000  -0.6128259   0.2000000), wk =   0.0066667
        k(  178) = (  -0.2000000  -0.0471405   0.2000000), wk =   0.0066667
        k(  179) = (  -0.2000000   0.0471405  -0.2000000), wk =   0.0066667
        k(  180) = (   0.2000000  -0.0471405  -0.2000000), wk =   0.0066667
        k(  181) = (  -0.2000000  -0.1885618   0.4000000), wk =   0.0066667
        k(  182) = (  -0.2000000   0.1885618  -0.4000000), wk =   0.0066667
        k(  183) = (   0.2000000  -0.1885618  -0.4000000), wk =   0.0066667
        k(  184) = (   0.4000000  -0.1885618   0.2000000), wk =   0.0066667
        k(  185) = (  -0.4000000  -0.1885618  -0.2000000), wk =   0.0066667
        k(  186) = (   0.4000000   0.1885618  -0.2000000), wk =   0.0066667
        k(  187) = (  -0.4000000   0.1885618   0.2000000), wk =   0.0066667
        k(  188) = (  -0.2000000   0.3771236  -0.4000000), wk =   0.0066667
        k(  189) = (  -0.2000000  -0.3771236   0.4000000), wk =   0.0066667
        k(  190) = (   0.2000000   0.3771236   0.4000000), wk =   0.0066667
        k(  191) = (  -0.4000000   0.3771236   0.2000000), wk =   0.0066667
        k(  192) = (   0.4000000   0.3771236  -0.2000000), wk =   0.0066667
        k(  193) = (  -0.4000000  -0.3771236  -0.2000000), wk =   0.0066667
        k(  194) = (   0.4000000  -0.3771236   0.2000000), wk =   0.0066667
        k(  195) = (  -0.4000000  -0.5656854   0.4000000), wk =   0.0066667
        k(  196) = (  -0.4000000   0.5656854  -0.4000000), wk =   0.0066667
        k(  197) = (   0.4000000  -0.5656854  -0.4000000), wk =   0.0066667
        k(  198) = (  -0.4000000  -0.0000000  -0.4000000), wk =   0.0133333
        k(  199) = (  -0.4000000  -0.8013877   0.4000000), wk =   0.0066667
        k(  200) = (  -0.4000000   0.8013877  -0.4000000), wk =   0.0066667
        k(  201) = (   0.4000000  -0.8013877  -0.4000000), wk =   0.0066667
        k(  202) = (  -0.4000000  -0.2357023  -0.4000000), wk =   0.0133333
        k(  203) = (  -0.4000000   0.2357023   0.4000000), wk =   0.0133333
        k(  204) = (   0.4000000  -0.2357023   0.4000000), wk =   0.0133333
        k(  205) = (  -0.4000000  -1.0370899   0.4000000), wk =   0.0066667
        k(  206) = (  -0.4000000   1.0370899  -0.4000000), wk =   0.0066667
        k(  207) = (   0.4000000  -1.0370899  -0.4000000), wk =   0.0066667
        k(  208) = (  -0.4000000  -0.4714045  -0.4000000), wk =   0.0133333
        k(  209) = (  -0.4000000   0.4714045   0.4000000), wk =   0.0133333
        k(  210) = (   0.4000000  -0.4714045   0.4000000), wk =   0.0133333
        k(  211) = (  -0.4000000   0.1414214   0.4000000), wk =   0.0066667
        k(  212) = (  -0.4000000  -0.1414214  -0.4000000), wk =   0.0066667
        k(  213) = (   0.4000000   0.1414214  -0.4000000), wk =   0.0066667
        k(  214) = (  -0.4000000   0.7071068  -0.4000000), wk =   0.0133333
        k(  215) = (  -0.4000000  -0.0942809   0.4000000), wk =   0.0066667
        k(  216) = (  -0.4000000   0.0942809  -0.4000000), wk =   0.0066667
        k(  217) = (   0.4000000  -0.0942809  -0.4000000), wk =   0.0066667
        k(  218) = (  -0.4000000  -0.3299832   0.4000000), wk =   0.0066667
        k(  219) = (  -0.4000000   0.3299832  -0.4000000), wk =   0.0066667
        k(  220) = (   0.4000000  -0.3299832  -0.4000000), wk =   0.0066667

                       cryst. coord.
        k(    1) = (   0.0000000   0.0000000   0.0000000), wk =   0.0133333
        k(    2) = (   0.0000000  -0.0000000   0.2000000), wk =   0.0133333
        k(    3) = (   0.0000000  -0.0000000   0.4000000), wk =   0.0133333
        k(    4) = (   0.0000000   0.1666667   0.0000000), wk =   0.0266667
        k(    5) = (   0.0000000   0.1666667   0.2000000), wk =   0.0133333
        k(    6) = (   0.0000000   0.1666667   0.4000000), wk =   0.0133333
        k(    7) = (   0.0000000   0.1666667  -0.4000000), wk =   0.0133333
        k(    8) = (   0.0000000   0.1666667  -0.2000000), wk =   0.0133333
        k(    9) = (   0.0000000   0.3333333   0.0000000), wk =   0.0266667
        k(   10) = (   0.0000000   0.3333333   0.2000000), wk =   0.0133333
        k(   11) = (   0.0000000   0.3333333   0.4000000), wk =   0.0133333
        k(   12) = (   0.0000000   0.3333333  -0.4000000), wk =   0.0133333
        k(   13) = (   0.0000000   0.3333333  -0.2000000), wk =   0.0133333
        k(   14) = (   0.0000000  -0.5000000   0.0000000), wk =   0.0133333
        k(   15) = (   0.0000000  -0.5000000   0.2000000), wk =   0.0133333
        k(   16) = (   0.0000000  -0.5000000   0.4000000), wk =   0.0133333
        k(   17) = (   0.2000000  -0.0000000   0.2000000), wk =   0.0066667
        k(   18) = (   0.2000000  -0.0000000   0.4000000), wk =   0.0066667
        k(   19) = (   0.2000000   0.0000000  -0.4000000), wk =   0.0066667
        k(   20) = (   0.2000000  -0.0000000  -0.2000000), wk =   0.0133333
        k(   21) = (   0.2000000   0.1666667   0.2000000), wk =   0.0066667
        k(   22) = (   0.2000000   0.1666667   0.4000000), wk =   0.0066667
        k(   23) = (   0.2000000   0.1666667  -0.4000000), wk =   0.0066667
        k(   24) = (   0.2000000   0.1666667  -0.2000000), wk =   0.0133333
        k(   25) = (   0.2000000   0.3333333   0.2000000), wk =   0.0066667
        k(   26) = (   0.2000000   0.3333333   0.4000000), wk =   0.0066667
        k(   27) = (   0.2000000   0.3333333  -0.4000000), wk =   0.0066667
        k(   28) = (   0.2000000   0.3333333  -0.2000000), wk =   0.0133333
        k(   29) = (   0.2000000  -0.5000000   0.2000000), wk =   0.0066667
        k(   30) = (   0.2000000  -0.5000000   0.4000000), wk =   0.0066667
        k(   31) = (   0.2000000  -0.5000000  -0.4000000), wk =   0.0066667
        k(   32) = (   0.2000000  -0.5000000  -0.2000000), wk =   0.0133333
        k(   33) = (   0.2000000  -0.3333333   0.2000000), wk =   0.0066667
        k(   34) = (   0.2000000  -0.3333333   0.4000000), wk =   0.0066667
        k(   35) = (   0.2000000  -0.3333333  -0.4000000), wk =   0.0066667
        k(   36) = (   0.2000000  -0.1666667   0.2000000), wk =   0.0066667
        k(   37) = (   0.2000000  -0.1666667   0.4000000), wk =   0.0066667
        k(   38) = (   0.2000000  -0.1666667  -0.4000000), wk =   0.0066667
        k(   39) = (   0.4000000  -0.0000000   0.4000000), wk =   0.0066667
        k(   40) = (   0.4000000  -0.0000000  -0.4000000), wk =   0.0133333
        k(   41) = (   0.4000000   0.1666667   0.4000000), wk =   0.0066667
        k(   42) = (   0.4000000   0.1666667  -0.4000000), wk =   0.0133333
        k(   43) = (   0.4000000   0.3333333   0.4000000), wk =   0.0066667
        k(   44) = (   0.4000000   0.3333333  -0.4000000), wk =   0.0133333
        k(   45) = (   0.4000000  -0.5000000   0.4000000), wk =   0.0066667
        k(   46) = (   0.4000000  -0.5000000  -0.4000000), wk =   0.0133333
        k(   47) = (   0.4000000  -0.3333333   0.4000000), wk =   0.0066667
        k(   48) = (   0.4000000  -0.1666667   0.4000000), wk =   0.0066667
        k(   49) = (   0.0000000  -0.2000000   0.2000000), wk =   0.0133333
        k(   50) = (   0.2000000  -0.2000000   0.0000000), wk =   0.0133333
        k(   51) = (  -0.2000000   0.0000000   0.0000000), wk =   0.0133333
        k(   52) = (   0.0000000  -0.4000000   0.4000000), wk =   0.0133333
        k(   53) = (   0.4000000  -0.4000000   0.0000000), wk =   0.0133333
        k(   54) = (  -0.4000000   0.0000000   0.0000000), wk =   0.0133333
        k(   55) = (   0.0000000  -0.3666667   0.2000000), wk =   0.0133333
        k(   56) = (   0.2000000  -0.3666667   0.0000000), wk =   0.0133333
        k(   57) = (  -0.2000000  -0.1666667   0.0000000), wk =   0.0133333
        k(   58) = (   0.0000000  -0.5666667   0.4000000), wk =   0.0133333
        k(   59) = (   0.4000000  -0.5666667   0.0000000), wk =   0.0133333
        k(   60) = (  -0.4000000  -0.1666667   0.0000000), wk =   0.0133333
        k(   61) = (   0.0000000   0.2333333  -0.4000000), wk =   0.0133333
        k(   62) = (  -0.4000000   0.2333333   0.0000000), wk =   0.0133333
        k(   63) = (   0.4000000  -0.1666667   0.0000000), wk =   0.0133333
        k(   64) = (   0.0000000   0.0333333  -0.2000000), wk =   0.0133333
        k(   65) = (  -0.2000000   0.0333333   0.0000000), wk =   0.0133333
        k(   66) = (   0.2000000  -0.1666667   0.0000000), wk =   0.0133333
        k(   67) = (   0.0000000  -0.5333333   0.2000000), wk =   0.0133333
        k(   68) = (   0.2000000  -0.5333333   0.0000000), wk =   0.0133333
        k(   69) = (  -0.2000000  -0.3333333   0.0000000), wk =   0.0133333
        k(   70) = (   0.0000000  -0.7333333   0.4000000), wk =   0.0133333
        k(   71) = (   0.4000000  -0.7333333   0.0000000), wk =   0.0133333
        k(   72) = (  -0.4000000  -0.3333333   0.0000000), wk =   0.0133333
        k(   73) = (   0.0000000   0.0666667  -0.4000000), wk =   0.0133333
        k(   74) = (  -0.4000000   0.0666667   0.0000000), wk =   0.0133333
        k(   75) = (   0.4000000  -0.3333333   0.0000000), wk =   0.0133333
        k(   76) = (   0.0000000  -0.1333333  -0.2000000), wk =   0.0133333
        k(   77) = (  -0.2000000  -0.1333333   0.0000000), wk =   0.0133333
        k(   78) = (   0.2000000  -0.3333333   0.0000000), wk =   0.0133333
        k(   79) = (   0.0000000   0.3000000   0.2000000), wk =   0.0133333
        k(   80) = (   0.2000000   0.3000000   0.0000000), wk =   0.0133333
        k(   81) = (  -0.2000000   0.5000000   0.0000000), wk =   0.0133333
        k(   82) = (   0.0000000   0.1000000   0.4000000), wk =   0.0133333
        k(   83) = (   0.4000000   0.1000000   0.0000000), wk =   0.0133333
        k(   84) = (  -0.4000000   0.5000000   0.0000000), wk =   0.0133333
        k(   85) = (  -0.2000000  -0.2000000   0.2000000), wk =   0.0066667
        k(   86) = (  -0.2000000   0.4000000  -0.2000000), wk =   0.0066667
        k(   87) = (   0.2000000  -0.2000000  -0.2000000), wk =   0.0066667
        k(   88) = (  -0.2000000  -0.4000000   0.4000000), wk =   0.0066667
        k(   89) = (  -0.2000000   0.6000000  -0.4000000), wk =   0.0066667
        k(   90) = (   0.2000000  -0.2000000  -0.4000000), wk =   0.0066667
        k(   91) = (   0.4000000  -0.6000000   0.2000000), wk =   0.0066667
        k(   92) = (  -0.4000000   0.0000000  -0.2000000), wk =   0.0066667
        k(   93) = (   0.4000000   0.2000000  -0.2000000), wk =   0.0066667
        k(   94) = (  -0.4000000   0.4000000   0.2000000), wk =   0.0066667
        k(   95) = (  -0.2000000   0.4000000  -0.4000000), wk =   0.0066667
        k(   96) = (  -0.2000000  -0.2000000   0.4000000), wk =   0.0066667
        k(   97) = (   0.2000000  -0.2000000   0.4000000), wk =   0.0066667
        k(   98) = (  -0.4000000   0.2000000   0.2000000), wk =   0.0066667
        k(   99) = (   0.4000000  -0.0000000  -0.2000000), wk =   0.0066667
        k(  100) = (  -0.4000000   0.2000000  -0.2000000), wk =   0.0066667
        k(  101) = (   0.4000000  -0.4000000   0.2000000), wk =   0.0066667
        k(  102) = (  -0.2000000   0.2000000  -0.2000000), wk =   0.0133333
        k(  103) = (  -0.2000000  -0.3666667   0.2000000), wk =   0.0066667
        k(  104) = (  -0.2000000   0.5666667  -0.2000000), wk =   0.0066667
        k(  105) = (   0.2000000  -0.3666667  -0.2000000), wk =   0.0066667
        k(  106) = (  -0.2000000  -0.5666667   0.4000000), wk =   0.0066667
        k(  107) = (  -0.2000000   0.7666667  -0.4000000), wk =   0.0066667
        k(  108) = (   0.2000000  -0.3666667  -0.4000000), wk =   0.0066667
        k(  109) = (   0.4000000  -0.7666667   0.2000000), wk =   0.0066667
        k(  110) = (  -0.4000000  -0.1666667  -0.2000000), wk =   0.0066667
        k(  111) = (   0.4000000   0.3666667  -0.2000000), wk =   0.0066667
        k(  112) = (  -0.4000000   0.5666667   0.2000000), wk =   0.0066667
        k(  113) = (  -0.2000000   0.2333333  -0.4000000), wk =   0.0066667
        k(  114) = (  -0.2000000  -0.0333333   0.4000000), wk =   0.0066667
        k(  115) = (   0.2000000  -0.3666667   0.4000000), wk =   0.0066667
        k(  116) = (  -0.4000000   0.0333333   0.2000000), wk =   0.0066667
        k(  117) = (   0.4000000  -0.1666667  -0.2000000), wk =   0.0066667
        k(  118) = (  -0.4000000   0.3666667  -0.2000000), wk =   0.0066667
        k(  119) = (   0.4000000  -0.2333333   0.2000000), wk =   0.0066667
        k(  120) = (  -0.2000000   0.0333333  -0.2000000), wk =   0.0133333
        k(  121) = (  -0.2000000   0.1666667   0.2000000), wk =   0.0133333
        k(  122) = (   0.2000000  -0.3666667   0.2000000), wk =   0.0133333
        k(  123) = (  -0.2000000  -0.5333333   0.2000000), wk =   0.0066667
        k(  124) = (  -0.2000000   0.7333333  -0.2000000), wk =   0.0066667
        k(  125) = (   0.2000000  -0.5333333  -0.2000000), wk =   0.0066667
        k(  126) = (  -0.2000000  -0.7333333   0.4000000), wk =   0.0066667
        k(  127) = (  -0.2000000   0.9333333  -0.4000000), wk =   0.0066667
        k(  128) = (   0.2000000  -0.5333333  -0.4000000), wk =   0.0066667
        k(  129) = (   0.4000000  -0.9333333   0.2000000), wk =   0.0066667
        k(  130) = (  -0.4000000  -0.3333333  -0.2000000), wk =   0.0066667
        k(  131) = (   0.4000000   0.5333333  -0.2000000), wk =   0.0066667
        k(  132) = (  -0.4000000   0.7333333   0.2000000), wk =   0.0066667
        k(  133) = (  -0.2000000   0.0666667  -0.4000000), wk =   0.0066667
        k(  134) = (  -0.2000000   0.1333333   0.4000000), wk =   0.0066667
        k(  135) = (   0.2000000  -0.5333333   0.4000000), wk =   0.0066667
        k(  136) = (  -0.4000000  -0.1333333   0.2000000), wk =   0.0066667
        k(  137) = (   0.4000000  -0.3333333  -0.2000000), wk =   0.0066667
        k(  138) = (  -0.4000000   0.5333333  -0.2000000), wk =   0.0066667
        k(  139) = (   0.4000000  -0.0666667   0.2000000), wk =   0.0066667
        k(  140) = (  -0.2000000  -0.1333333  -0.2000000), wk =   0.0133333
        k(  141) = (  -0.2000000   0.3333333   0.2000000), wk =   0.0133333
        k(  142) = (   0.2000000  -0.5333333   0.2000000), wk =   0.0133333
        k(  143) = (  -0.2000000   0.3000000   0.2000000), wk =   0.0066667
        k(  144) = (  -0.2000000  -0.1000000  -0.2000000), wk =   0.0066667
        k(  145) = (   0.2000000   0.3000000  -0.2000000), wk =   0.0066667
        k(  146) = (  -0.2000000   0.1000000   0.4000000), wk =   0.0066667
        k(  147) = (  -0.2000000   0.1000000  -0.4000000), wk =   0.0066667
        k(  148) = (   0.2000000   0.3000000  -0.4000000), wk =   0.0066667
        k(  149) = (   0.4000000  -0.1000000   0.2000000), wk =   0.0066667
        k(  150) = (  -0.4000000   0.5000000  -0.2000000), wk =   0.0066667
        k(  151) = (   0.4000000  -0.3000000  -0.2000000), wk =   0.0066667
        k(  152) = (  -0.4000000  -0.1000000   0.2000000), wk =   0.0066667
        k(  153) = (  -0.2000000   0.9000000  -0.4000000), wk =   0.0066667
        k(  154) = (  -0.2000000  -0.7000000   0.4000000), wk =   0.0066667
        k(  155) = (   0.2000000   0.3000000   0.4000000), wk =   0.0066667
        k(  156) = (  -0.4000000   0.7000000   0.2000000), wk =   0.0066667
        k(  157) = (   0.4000000   0.5000000  -0.2000000), wk =   0.0066667
        k(  158) = (  -0.4000000  -0.3000000  -0.2000000), wk =   0.0066667
        k(  159) = (   0.4000000  -0.9000000   0.2000000), wk =   0.0066667
        k(  160) = (  -0.2000000   0.7000000  -0.2000000), wk =   0.0133333
        k(  161) = (  -0.2000000   0.1333333   0.2000000), wk =   0.0066667
        k(  162) = (  -0.2000000   0.0666667  -0.2000000), wk =   0.0066667
        k(  163) = (   0.2000000   0.1333333  -0.2000000), wk =   0.0066667
        k(  164) = (  -0.2000000  -0.0666667   0.4000000), wk =   0.0066667
        k(  165) = (  -0.2000000   0.2666667  -0.4000000), wk =   0.0066667
        k(  166) = (   0.2000000   0.1333333  -0.4000000), wk =   0.0066667
        k(  167) = (   0.4000000  -0.2666667   0.2000000), wk =   0.0066667
        k(  168) = (  -0.4000000   0.3333333  -0.2000000), wk =   0.0066667
        k(  169) = (   0.4000000  -0.1333333  -0.2000000), wk =   0.0066667
        k(  170) = (  -0.4000000   0.0666667   0.2000000), wk =   0.0066667
        k(  171) = (  -0.2000000   0.7333333  -0.4000000), wk =   0.0066667
        k(  172) = (  -0.2000000  -0.5333333   0.4000000), wk =   0.0066667
        k(  173) = (   0.2000000   0.1333333   0.4000000), wk =   0.0066667
        k(  174) = (  -0.4000000   0.5333333   0.2000000), wk =   0.0066667
        k(  175) = (   0.4000000   0.3333333  -0.2000000), wk =   0.0066667
        k(  176) = (  -0.4000000  -0.1333333  -0.2000000), wk =   0.0066667
        k(  177) = (   0.4000000  -0.7333333   0.2000000), wk =   0.0066667
        k(  178) = (  -0.2000000  -0.0333333   0.2000000), wk =   0.0066667
        k(  179) = (  -0.2000000   0.2333333  -0.2000000), wk =   0.0066667
        k(  180) = (   0.2000000  -0.0333333  -0.2000000), wk =   0.0066667
        k(  181) = (  -0.2000000  -0.2333333   0.4000000), wk =   0.0066667
        k(  182) = (  -0.2000000   0.4333333  -0.4000000), wk =   0.0066667
        k(  183) = (   0.2000000  -0.0333333  -0.4000000), wk =   0.0066667
        k(  184) = (   0.4000000  -0.4333333   0.2000000), wk =   0.0066667
        k(  185) = (  -0.4000000   0.1666667  -0.2000000), wk =   0.0066667
        k(  186) = (   0.4000000   0.0333333  -0.2000000), wk =   0.0066667
        k(  187) = (  -0.4000000   0.2333333   0.2000000), wk =   0.0066667
        k(  188) = (  -0.2000000   0.5666667  -0.4000000), wk =   0.0066667
        k(  189) = (  -0.2000000  -0.3666667   0.4000000), wk =   0.0066667
        k(  190) = (   0.2000000  -0.0333333   0.4000000), wk =   0.0066667
        k(  191) = (  -0.4000000   0.3666667   0.2000000), wk =   0.0066667
        k(  192) = (   0.4000000   0.1666667  -0.2000000), wk =   0.0066667
        k(  193) = (  -0.4000000   0.0333333  -0.2000000), wk =   0.0066667
        k(  194) = (   0.4000000  -0.5666667   0.2000000), wk =   0.0066667
        k(  195) = (  -0.4000000  -0.4000000   0.4000000), wk =   0.0066667
        k(  196) = (  -0.4000000   0.8000000  -0.4000000), wk =   0.0066667
        k(  197) = (   0.4000000  -0.4000000  -0.4000000), wk =   0.0066667
        k(  198) = (  -0.4000000   0.4000000  -0.4000000), wk =   0.0133333
        k(  199) = (  -0.4000000  -0.5666667   0.4000000), wk =   0.0066667
        k(  200) = (  -0.4000000   0.9666667  -0.4000000), wk =   0.0066667
        k(  201) = (   0.4000000  -0.5666667  -0.4000000), wk =   0.0066667
        k(  202) = (  -0.4000000   0.2333333  -0.4000000), wk =   0.0133333
        k(  203) = (  -0.4000000   0.1666667   0.4000000), wk =   0.0133333
        k(  204) = (   0.4000000  -0.5666667   0.4000000), wk =   0.0133333
        k(  205) = (  -0.4000000  -0.7333333   0.4000000), wk =   0.0066667
        k(  206) = (  -0.4000000   1.1333333  -0.4000000), wk =   0.0066667
        k(  207) = (   0.4000000  -0.7333333  -0.4000000), wk =   0.0066667
        k(  208) = (  -0.4000000   0.0666667  -0.4000000), wk =   0.0133333
        k(  209) = (  -0.4000000   0.3333333   0.4000000), wk =   0.0133333
        k(  210) = (   0.4000000  -0.7333333   0.4000000), wk =   0.0133333
        k(  211) = (  -0.4000000   0.1000000   0.4000000), wk =   0.0066667
        k(  212) = (  -0.4000000   0.3000000  -0.4000000), wk =   0.0066667
        k(  213) = (   0.4000000   0.1000000  -0.4000000), wk =   0.0066667
        k(  214) = (  -0.4000000   0.9000000  -0.4000000), wk =   0.0133333
        k(  215) = (  -0.4000000  -0.0666667   0.4000000), wk =   0.0066667
        k(  216) = (  -0.4000000   0.4666667  -0.4000000), wk =   0.0066667
        k(  217) = (   0.4000000  -0.0666667  -0.4000000), wk =   0.0066667
        k(  218) = (  -0.4000000  -0.2333333   0.4000000), wk =   0.0066667
        k(  219) = (  -0.4000000   0.6333333  -0.4000000), wk =   0.0066667
        k(  220) = (   0.4000000  -0.2333333  -0.4000000), wk =   0.0066667

     Dense  grid:  2526263 G-vectors     FFT dimensions: ( 192, 192, 192)

     Smooth grid:   892711 G-vectors     FFT dimensions: ( 135, 135, 135)

     Dynamical RAM for                 wfc:     441.26 MB

     Dynamical RAM for     wfc (w. buffer):    6618.89 MB

     Dynamical RAM for           str. fact:      77.10 MB

     Dynamical RAM for           local pot:       0.00 MB

     Dynamical RAM for          nlocal pot:    1656.00 MB

     Dynamical RAM for                qrad:      15.20 MB

     Dynamical RAM for          rho,v,vnew:     277.64 MB

     Dynamical RAM for               rhoin:      92.55 MB

     Dynamical RAM for            rho*nmix:     616.76 MB

     Dynamical RAM for           G-vectors:     151.36 MB

     Dynamical RAM for          h,s,v(r/c):      49.13 MB

     Dynamical RAM for          <psi|beta>:       3.84 MB

     Dynamical RAM for                 psi:    1765.04 MB

     Dynamical RAM for                hpsi:    1765.04 MB

     Dynamical RAM for                spsi:    1765.04 MB

     Dynamical RAM for      wfcinit/wfcrot:    1568.83 MB

     Dynamical RAM for           addusdens:    8210.66 MB

     Estimated static dynamical RAM per process >       9.66 GB

     Estimated max dynamical RAM per process >      17.68 GB

     Estimated total dynamical RAM >     282.84 GB

SIRIUS version :  4.07
git hash       : d75abff3bebe8471eec883d10636ecc565e4a4f2
build date     : Tue,  8 Aug 2017 11:51:15
start time     : Tue,  8 Aug 2017 17:29:09

number of MPI ranks           : 16
MPI grid                      : 1 1 16
maximum number of OMP threads : 10

FFT context for density and potential
=====================================
  comm size                             : 1
  plane wave cutoff                     : 18.973666
  grid size                             : 192 192 192   total : 7077888
  grid limits                           : -95 96   -95 96   -95 96
  number of G-vectors within the cutoff : 1263132
  local number of G-vectors             : 78945
  number of G-shells                    : 7214

FFT context for coarse grid
===========================
  comm size                             : 1
  plane wave cutoff                     : 13.416408
  grid size                             : 135 135 135   total : 2460375
  grid limits                           : -67 67   -67 67   -67 67
  number of G-vectors within the cutoff : 446356
  number of G-shells                    : 3416


Unit cell
--------------------------------------------------------------------------------
lattice vectors
  a1 :      31.4056042668       0.0000000000       0.0000000000 
  a2 :     -15.7028021334      22.2071157443     -15.7028021334 
  a3 :       0.0000000000       0.0000000000      31.4056042668 
reciprocal lattice vectors
  b1 :       0.2000657352       0.1414678380      -0.0000000000 
  b2 :       0.0000000000       0.2829356761       0.0000000000 
  b3 :      -0.0000000000       0.1414678380       0.2000657352 

unit cell volume :     21903.14428573 [a.u.^3]
1/sqrt(omega)    :         0.00675689
MT volume        : 0.000000 ( 0.00%)
IT volume        : 21903.144286 (100.00%)

number of atom types : 2
type id : 0   symbol : Cs   mt_radius : 203.303613
type id : 1   symbol :  I   mt_radius : 206.377721
number of atoms : 54
number of symmetry classes : 54
number of PAW atoms : 0

space group number   : 1
international symbol : P1
Hall symbol          : P 1
number of operations : 1
transformation matrix : 
   -1.000000    -0.000000     0.000000 
    1.000000    -1.000000     0.000000 
   -0.000000     0.000000     1.000000 
origin shift : 
    0.000000     0.000000     0.000000

symbol         : Cs
--------------------------------------------------------------------------------
name           : 
zn             : 9
mass           : 132.905452
mt_radius      : 203.303613
num_mt_points  : 905
grid_origin    : 0.000000
grid_name      : external

number of core electrons    : 0.000000
number of valence electrons : 9.000000

total number of radial functions : 6
lmax of radial functions : 2
maximum number of radial functions per orbital quantum number: 2
total number of basis functions : 18
number of aw basis functions : 0
number of lo basis functions : 18

symbol         : I
--------------------------------------------------------------------------------
name           : 
zn             : 7
mass           : 126.904470
mt_radius      : 206.377721
num_mt_points  : 893
grid_origin    : 0.000000
grid_name      : external

number of core electrons    : 0.000000
number of valence electrons : 7.000000

total number of radial functions : 6
lmax of radial functions : 2
maximum number of radial functions per orbital quantum number: 2
total number of basis functions : 18
number of aw basis functions : 0
number of lo basis functions : 18

total nuclear charge               : 432
number of core electrons           : 0.000000
number of valence electrons        : 432.000000
total number of electrons          : 432.000000
total number of aw basis functions : 0
total number of lo basis functions : 972
number of first-variational states : 259
number of bands                    : 259
number of spins                    : 1
number of magnetic dimensions      : 0
lmax_apw                           : -1
lmax_rho                           : 4
lmax_pot                           : 4
lmax_rf                            : 2
smearing width                     : 0.010000
cyclic block size                  : 128
|G+k| cutoff                       : 6.708204
valence relativity                 : zora
core relativity                    : Dirac
standard eigen-value solver        : LAPACK
generalized eigen-value solver     : LAPACK
processing unit                    : GPU
  name                             : Tesla P100-PCIE-16GB 
  major                            : 6 
  minor                            : 0 
  asyncEngineCount                 : 2 
  canMapHostMemory                 : 1 
  clockRate                        : 1328500 kHz 
  concurrentKernels                : 1 
  ECCEnabled                       : 1 
  l2CacheSize                      : 4096 kB 
  maxGridSize                      : 2147483647 65535 65535 
  maxThreadsDim                    : 1024 1024 64 
  maxThreadsPerBlock               : 1024 
  maxThreadsPerMultiProcessor      : 2048 
  memoryBusWidth                   : 4096 bits 
  memoryClockRate                  : 715000 kHz 
  memPitch                         : 2147483647 
  multiProcessorCount              : 56 
  regsPerBlock                     : 65536 
  sharedMemPerBlock                : 48 kB 
  totalConstMem                    : 64 kB 
  totalGlobalMem                   : 16666880 kB 
  available memory                 : 16065792 kB 

XC functionals
==============
1) XC_GGA_X_PBE: Perdew, Burke & Ernzerhof
J. P. Perdew, K. Burke, and M. Ernzerhof, Phys. Rev. Lett. 77, 3865 (1996) (10.1103/PhysRevLett.77.3865)
J. P. Perdew, K. Burke, and M. Ernzerhof, Phys. Rev. Lett. 78, 1396 (1997) (10.1103/PhysRevLett.78.1396)

2) XC_GGA_C_PBE: Perdew, Burke & Ernzerhof
J. P. Perdew, K. Burke, and M. Ernzerhof, Phys. Rev. Lett. 77, 3865 (1996) (10.1103/PhysRevLett.77.3865)
J. P. Perdew, K. Burke, and M. Ernzerhof, Phys. Rev. Lett. 78, 1396 (1997) (10.1103/PhysRevLett.78.1396)


total number of k-points : 220
--------------------------------------------------------------------------------
  ik                vk                    weight  num_gkvec
--------------------------------------------------------------------------------
   0     0.0000   0.0000   0.0000       0.006667     111643
   1     0.0000  -0.0000   0.2000       0.006667     111721
   2     0.0000  -0.0000   0.4000       0.006667     111678
   3     0.0000   0.1667   0.0000       0.013333     111711
   4     0.0000   0.1667   0.2000       0.006667     111696
   5     0.0000   0.1667   0.4000       0.006667     111607
   6     0.0000   0.1667  -0.4000       0.006667     111684
   7     0.0000   0.1667  -0.2000       0.006667     111722
   8     0.0000   0.3333   0.0000       0.013333     111668
   9     0.0000   0.3333   0.2000       0.006667     111613
  10     0.0000   0.3333   0.4000       0.006667     111613
  11     0.0000   0.3333  -0.4000       0.006667     111659
  12     0.0000   0.3333  -0.2000       0.006667     111691
  13     0.0000  -0.5000   0.0000       0.006667     111556
  14     0.0000  -0.5000   0.2000       0.006667     111655
  15     0.0000  -0.5000   0.4000       0.006667     111607
  16     0.2000  -0.0000   0.2000       0.003333     111667
  17     0.2000  -0.0000   0.4000       0.003333     111600
  18     0.2000   0.0000  -0.4000       0.003333     111665
  19     0.2000  -0.0000  -0.2000       0.006667     111711
  20     0.2000   0.1667   0.2000       0.003333     111613
  21     0.2000   0.1667   0.4000       0.003333     111629
  22     0.2000   0.1667  -0.4000       0.003333     111679
  23     0.2000   0.1667  -0.2000       0.006667     111687
  24     0.2000   0.3333   0.2000       0.003333     111625
  25     0.2000   0.3333   0.4000       0.003333     111601
  26     0.2000   0.3333  -0.4000       0.003333     111630
  27     0.2000   0.3333  -0.2000       0.006667     111630
  28     0.2000  -0.5000   0.2000       0.003333     111691
  29     0.2000  -0.5000   0.4000       0.003333     111616
  30     0.2000  -0.5000  -0.4000       0.003333     111630
  31     0.2000  -0.5000  -0.2000       0.006667     111608
  32     0.2000  -0.3333   0.2000       0.003333     111710
  33     0.2000  -0.3333   0.4000       0.003333     111679
  34     0.2000  -0.3333  -0.4000       0.003333     111629
  35     0.2000  -0.1667   0.2000       0.003333     111734
  36     0.2000  -0.1667   0.4000       0.003333     111647
  37     0.2000  -0.1667  -0.4000       0.003333     111629
  38     0.4000  -0.0000   0.4000       0.003333     111692
  39     0.4000  -0.0000  -0.4000       0.006667     111632
  40     0.4000   0.1667   0.4000       0.003333     111654
  41     0.4000   0.1667  -0.4000       0.006667     111641
  42     0.4000   0.3333   0.4000       0.003333     111619
  43     0.4000   0.3333  -0.4000       0.006667     111663
  44     0.4000  -0.5000   0.4000       0.003333     111628
  45     0.4000  -0.5000  -0.4000       0.006667     111648
  46     0.4000  -0.3333   0.4000       0.003333     111651
  47     0.4000  -0.1667   0.4000       0.003333     111604
  48     0.0000  -0.2000   0.2000       0.006667     111721
  49     0.2000  -0.2000   0.0000       0.006667     111721
  50    -0.2000   0.0000   0.0000       0.006667     111721
  51     0.0000  -0.4000   0.4000       0.006667     111678
  52     0.4000  -0.4000   0.0000       0.006667     111678
  53    -0.4000   0.0000   0.0000       0.006667     111678
  54     0.0000  -0.3667   0.2000       0.006667     111696
  55     0.2000  -0.3667   0.0000       0.006667     111696
  56    -0.2000  -0.1667   0.0000       0.006667     111696
  57     0.0000  -0.5667   0.4000       0.006667     111607
  58     0.4000  -0.5667   0.0000       0.006667     111607
  59    -0.4000  -0.1667   0.0000       0.006667     111607
  60     0.0000   0.2333  -0.4000       0.006667     111684
  61    -0.4000   0.2333   0.0000       0.006667     111684
  62     0.4000  -0.1667   0.0000       0.006667     111684
  63     0.0000   0.0333  -0.2000       0.006667     111722
  64    -0.2000   0.0333   0.0000       0.006667     111722
  65     0.2000  -0.1667   0.0000       0.006667     111722
  66     0.0000  -0.5333   0.2000       0.006667     111613
  67     0.2000  -0.5333   0.0000       0.006667     111613
  68    -0.2000  -0.3333   0.0000       0.006667     111613
  69     0.0000  -0.7333   0.4000       0.006667     111613
  70     0.4000  -0.7333   0.0000       0.006667     111613
  71    -0.4000  -0.3333   0.0000       0.006667     111613
  72     0.0000   0.0667  -0.4000       0.006667     111659
  73    -0.4000   0.0667   0.0000       0.006667     111659
  74     0.4000  -0.3333   0.0000       0.006667     111659
  75     0.0000  -0.1333  -0.2000       0.006667     111691
  76    -0.2000  -0.1333   0.0000       0.006667     111691
  77     0.2000  -0.3333   0.0000       0.006667     111691
  78     0.0000   0.3000   0.2000       0.006667     111655
  79     0.2000   0.3000   0.0000       0.006667     111655
  80    -0.2000   0.5000   0.0000       0.006667     111655
  81     0.0000   0.1000   0.4000       0.006667     111607
  82     0.4000   0.1000   0.0000       0.006667     111607
  83    -0.4000   0.5000   0.0000       0.006667     111607
  84    -0.2000  -0.2000   0.2000       0.003333     111667
  85    -0.2000   0.4000  -0.2000       0.003333     111667
  86     0.2000  -0.2000  -0.2000       0.003333     111667
  87    -0.2000  -0.4000   0.4000       0.003333     111600
  88    -0.2000   0.6000  -0.4000       0.003333     111600
  89     0.2000  -0.2000  -0.4000       0.003333     111600
  90     0.4000  -0.6000   0.2000       0.003333     111600
  91    -0.4000   0.0000  -0.2000       0.003333     111600
  92     0.4000   0.2000  -0.2000       0.003333     111600
  93    -0.4000   0.4000   0.2000       0.003333     111600
  94    -0.2000   0.4000  -0.4000       0.003333     111665
  95    -0.2000  -0.2000   0.4000       0.003333     111665
  96     0.2000  -0.2000   0.4000       0.003333     111665
  97    -0.4000   0.2000   0.2000       0.003333     111665
  98     0.4000  -0.0000  -0.2000       0.003333     111665
  99    -0.4000   0.2000  -0.2000       0.003333     111665
 100     0.4000  -0.4000   0.2000       0.003333     111665
 101    -0.2000   0.2000  -0.2000       0.006667     111711
 102    -0.2000  -0.3667   0.2000       0.003333     111613
 103    -0.2000   0.5667  -0.2000       0.003333     111613
 104     0.2000  -0.3667  -0.2000       0.003333     111613
 105    -0.2000  -0.5667   0.4000       0.003333     111629
 106    -0.2000   0.7667  -0.4000       0.003333     111629
 107     0.2000  -0.3667  -0.4000       0.003333     111629
 108     0.4000  -0.7667   0.2000       0.003333     111629
 109    -0.4000  -0.1667  -0.2000       0.003333     111629
 110     0.4000   0.3667  -0.2000       0.003333     111629
 111    -0.4000   0.5667   0.2000       0.003333     111629
 112    -0.2000   0.2333  -0.4000       0.003333     111679
 113    -0.2000  -0.0333   0.4000       0.003333     111679
 114     0.2000  -0.3667   0.4000       0.003333     111679
 115    -0.4000   0.0333   0.2000       0.003333     111679
 116     0.4000  -0.1667  -0.2000       0.003333     111679
 117    -0.4000   0.3667  -0.2000       0.003333     111679
 118     0.4000  -0.2333   0.2000       0.003333     111679
 119    -0.2000   0.0333  -0.2000       0.006667     111687
 120    -0.2000   0.1667   0.2000       0.006667     111687
 121     0.2000  -0.3667   0.2000       0.006667     111687
 122    -0.2000  -0.5333   0.2000       0.003333     111625
 123    -0.2000   0.7333  -0.2000       0.003333     111625
 124     0.2000  -0.5333  -0.2000       0.003333     111625
 125    -0.2000  -0.7333   0.4000       0.003333     111601
 126    -0.2000   0.9333  -0.4000       0.003333     111601
 127     0.2000  -0.5333  -0.4000       0.003333     111601
 128     0.4000  -0.9333   0.2000       0.003333     111601
 129    -0.4000  -0.3333  -0.2000       0.003333     111601
 130     0.4000   0.5333  -0.2000       0.003333     111601
 131    -0.4000   0.7333   0.2000       0.003333     111601
 132    -0.2000   0.0667  -0.4000       0.003333     111630
 133    -0.2000   0.1333   0.4000       0.003333     111630
 134     0.2000  -0.5333   0.4000       0.003333     111630
 135    -0.4000  -0.1333   0.2000       0.003333     111630
 136     0.4000  -0.3333  -0.2000       0.003333     111630
 137    -0.4000   0.5333  -0.2000       0.003333     111630
 138     0.4000  -0.0667   0.2000       0.003333     111630
 139    -0.2000  -0.1333  -0.2000       0.006667     111630
 140    -0.2000   0.3333   0.2000       0.006667     111630
 141     0.2000  -0.5333   0.2000       0.006667     111630
 142    -0.2000   0.3000   0.2000       0.003333     111691
 143    -0.2000  -0.1000  -0.2000       0.003333     111691
 144     0.2000   0.3000  -0.2000       0.003333     111691
 145    -0.2000   0.1000   0.4000       0.003333     111616
 146    -0.2000   0.1000  -0.4000       0.003333     111616
 147     0.2000   0.3000  -0.4000       0.003333     111616
 148     0.4000  -0.1000   0.2000       0.003333     111616
 149    -0.4000   0.5000  -0.2000       0.003333     111616
 150     0.4000  -0.3000  -0.2000       0.003333     111616
 151    -0.4000  -0.1000   0.2000       0.003333     111616
 152    -0.2000   0.9000  -0.4000       0.003333     111630
 153    -0.2000  -0.7000   0.4000       0.003333     111630
 154     0.2000   0.3000   0.4000       0.003333     111630
 155    -0.4000   0.7000   0.2000       0.003333     111630
 156     0.4000   0.5000  -0.2000       0.003333     111630
 157    -0.4000  -0.3000  -0.2000       0.003333     111630
 158     0.4000  -0.9000   0.2000       0.003333     111630
 159    -0.2000   0.7000  -0.2000       0.006667     111608
 160    -0.2000   0.1333   0.2000       0.003333     111710
 161    -0.2000   0.0667  -0.2000       0.003333     111710
 162     0.2000   0.1333  -0.2000       0.003333     111710
 163    -0.2000  -0.0667   0.4000       0.003333     111679
 164    -0.2000   0.2667  -0.4000       0.003333     111679
 165     0.2000   0.1333  -0.4000       0.003333     111679
 166     0.4000  -0.2667   0.2000       0.003333     111679
 167    -0.4000   0.3333  -0.2000       0.003333     111679
 168     0.4000  -0.1333  -0.2000       0.003333     111679
 169    -0.4000   0.0667   0.2000       0.003333     111679
 170    -0.2000   0.7333  -0.4000       0.003333     111629
 171    -0.2000  -0.5333   0.4000       0.003333     111629
 172     0.2000   0.1333   0.4000       0.003333     111629
 173    -0.4000   0.5333   0.2000       0.003333     111629
 174     0.4000   0.3333  -0.2000       0.003333     111629
 175    -0.4000  -0.1333  -0.2000       0.003333     111629
 176     0.4000  -0.7333   0.2000       0.003333     111629
 177    -0.2000  -0.0333   0.2000       0.003333     111734
 178    -0.2000   0.2333  -0.2000       0.003333     111734
 179     0.2000  -0.0333  -0.2000       0.003333     111734
 180    -0.2000  -0.2333   0.4000       0.003333     111647
 181    -0.2000   0.4333  -0.4000       0.003333     111647
 182     0.2000  -0.0333  -0.4000       0.003333     111647
 183     0.4000  -0.4333   0.2000       0.003333     111647
 184    -0.4000   0.1667  -0.2000       0.003333     111647
 185     0.4000   0.0333  -0.2000       0.003333     111647
 186    -0.4000   0.2333   0.2000       0.003333     111647
 187    -0.2000   0.5667  -0.4000       0.003333     111629
 188    -0.2000  -0.3667   0.4000       0.003333     111629
 189     0.2000  -0.0333   0.4000       0.003333     111629
 190    -0.4000   0.3667   0.2000       0.003333     111629
 191     0.4000   0.1667  -0.2000       0.003333     111629
 192    -0.4000   0.0333  -0.2000       0.003333     111629
 193     0.4000  -0.5667   0.2000       0.003333     111629
 194    -0.4000  -0.4000   0.4000       0.003333     111692
 195    -0.4000   0.8000  -0.4000       0.003333     111692
 196     0.4000  -0.4000  -0.4000       0.003333     111692
 197    -0.4000   0.4000  -0.4000       0.006667     111632
 198    -0.4000  -0.5667   0.4000       0.003333     111654
 199    -0.4000   0.9667  -0.4000       0.003333     111654
 200     0.4000  -0.5667  -0.4000       0.003333     111654
 201    -0.4000   0.2333  -0.4000       0.006667     111641
 202    -0.4000   0.1667   0.4000       0.006667     111641
 203     0.4000  -0.5667   0.4000       0.006667     111641
 204    -0.4000  -0.7333   0.4000       0.003333     111619
 205    -0.4000   1.1333  -0.4000       0.003333     111619
 206     0.4000  -0.7333  -0.4000       0.003333     111619
 207    -0.4000   0.0667  -0.4000       0.006667     111663
 208    -0.4000   0.3333   0.4000       0.006667     111663
 209     0.4000  -0.7333   0.4000       0.006667     111663
 210    -0.4000   0.1000   0.4000       0.003333     111628
 211    -0.4000   0.3000  -0.4000       0.003333     111628
 212     0.4000   0.1000  -0.4000       0.003333     111628
 213    -0.4000   0.9000  -0.4000       0.006667     111648
 214    -0.4000  -0.0667   0.4000       0.003333     111651
 215    -0.4000   0.4667  -0.4000       0.003333     111651
 216     0.4000  -0.0667  -0.4000       0.003333     111651
 217    -0.4000  -0.2333   0.4000       0.003333     111604
 218    -0.4000   0.6333  -0.4000       0.003333     111604
 219     0.4000  -0.2333  -0.4000       0.003333     111604

=== Warning at line 43 of file Density/initial_density.hpp ===
wrong initial charge density
  integral of the density : 432
  target number of electrons : 432


     Self-consistent Calculation

     iteration #  1     ecut=    45.00 Ry     beta=0.35
     ethr =  1.00E-02
Lowest band energies
ik :  0,    -0.684281   -0.684258   -0.684221   -0.684196   -0.684178   -0.684170   -0.684150   -0.684136   -0.684104   -0.684093
ik :  1,    -0.684302   -0.684261   -0.684241   -0.684195   -0.684180   -0.684166   -0.684145   -0.684129   -0.684106   -0.684095
ik :  2,    -0.684327   -0.684268   -0.684247   -0.684188   -0.684176   -0.684168   -0.684137   -0.684122   -0.684105   -0.684093
ik :  3,    -0.684290   -0.684261   -0.684218   -0.684195   -0.684184   -0.684171   -0.684150   -0.684128   -0.684104   -0.684099
ik :  4,    -0.684315   -0.684270   -0.684248   -0.684193   -0.684186   -0.684171   -0.684148   -0.684126   -0.684108   -0.684097
ik :  5,    -0.684332   -0.684282   -0.684235   -0.684190   -0.684177   -0.684174   -0.684134   -0.684126   -0.684102   -0.684093
ik :  6,    -0.684321   -0.684286   -0.684229   -0.684190   -0.684181   -0.684172   -0.684138   -0.684121   -0.684106   -0.684092
ik :  7,    -0.684302   -0.684267   -0.684212   -0.684191   -0.684181   -0.684166   -0.684143   -0.684131   -0.684100   -0.684095
ik :  8,    -0.684327   -0.684267   -0.684230   -0.684199   -0.684195   -0.684178   -0.684152   -0.684122   -0.684110   -0.684098
ik :  9,    -0.684346   -0.684283   -0.684235   -0.684201   -0.684194   -0.684176   -0.684149   -0.684127   -0.684106   -0.684097
ik : 10,    -0.684334   -0.684293   -0.684226   -0.684195   -0.684185   -0.684171   -0.684140   -0.684122   -0.684104   -0.684095
ik : 11,    -0.684329   -0.684285   -0.684217   -0.684187   -0.684183   -0.684169   -0.684140   -0.684120   -0.684106   -0.684094
ik : 12,    -0.684316   -0.684277   -0.684213   -0.684189   -0.684187   -0.684164   -0.684154   -0.684125   -0.684103   -0.684097
ik : 13,    -0.684352   -0.684266   -0.684236   -0.684205   -0.684201   -0.684181   -0.684152   -0.684122   -0.684111   -0.684096
ik : 14,    -0.684343   -0.684286   -0.684225   -0.684200   -0.684195   -0.684170   -0.684156   -0.684122   -0.684104   -0.684099
ik : 15,    -0.684328   -0.684288   -0.684215   -0.684187   -0.684182   -0.684165   -0.684144   -0.684116   -0.684105   -0.684094
ik : 16,    -0.684334   -0.684260   -0.684249   -0.684211   -0.684181   -0.684155   -0.684144   -0.684124   -0.684100   -0.684094
ik : 17,    -0.684338   -0.684273   -0.684247   -0.684203   -0.684182   -0.684159   -0.684138   -0.684126   -0.684106   -0.684088
ik : 18,    -0.684316   -0.684279   -0.684242   -0.684206   -0.684184   -0.684163   -0.684139   -0.684127   -0.684107   -0.684084
ik : 19,    -0.684300   -0.684264   -0.684228   -0.684206   -0.684181   -0.684160   -0.684149   -0.684124   -0.684108   -0.684083
ik : 20,    -0.684350   -0.684279   -0.684233   -0.684216   -0.684185   -0.684165   -0.684151   -0.684119   -0.684105   -0.684086
ik : 21,    -0.684334   -0.684291   -0.684234   -0.684208   -0.684189   -0.684166   -0.684139   -0.684125   -0.684104   -0.684082
ik : 22,    -0.684322   -0.684281   -0.684226   -0.684207   -0.684191   -0.684163   -0.684140   -0.684127   -0.684107   -0.684086
ik : 23,    -0.684317   -0.684271   -0.684225   -0.684203   -0.684184   -0.684155   -0.684150   -0.684135   -0.684103   -0.684089
ik : 24,    -0.684346   -0.684291   -0.684234   -0.684212   -0.684179   -0.684171   -0.684155   -0.684115   -0.684105   -0.684086
ik : 25,    -0.684330   -0.684292   -0.684226   -0.684207   -0.684182   -0.684165   -0.684142   -0.684120   -0.684106   -0.684087
ik : 26,    -0.684329   -0.684282   -0.684223   -0.684210   -0.684179   -0.684154   -0.684141   -0.684133   -0.684107   -0.684092
ik : 27,    -0.684338   -0.684272   -0.684232   -0.684215   -0.684175   -0.684162   -0.684145   -0.684140   -0.684104   -0.684098
ik : 28,    -0.684324   -0.684290   -0.684224   -0.684208   -0.684179   -0.684161   -0.684153   -0.684115   -0.684103   -0.684092
ik : 29,    -0.684329   -0.684290   -0.684224   -0.684209   -0.684177   -0.684155   -0.684142   -0.684120   -0.684108   -0.684092
ik : 30,    -0.684337   -0.684295   -0.684231   -0.684217   -0.684173   -0.684157   -0.684145   -0.684132   -0.684111   -0.684096
ik : 31,    -0.684347   -0.684279   -0.684245   -0.684225   -0.684174   -0.684169   -0.684146   -0.684138   -0.684109   -0.684098
ik : 32,    -0.684313   -0.684280   -0.684224   -0.684207   -0.684177   -0.684154   -0.684149   -0.684117   -0.684106   -0.684095
ik : 33,    -0.684329   -0.684293   -0.684237   -0.684211   -0.684178   -0.684156   -0.684143   -0.684124   -0.684109   -0.684096
ik : 34,    -0.684334   -0.684294   -0.684242   -0.684214   -0.684171   -0.684161   -0.684143   -0.684131   -0.684112   -0.684096
ik : 35,    -0.684314   -0.684266   -0.684238   -0.684210   -0.684175   -0.684153   -0.684146   -0.684123   -0.684102   -0.684100
ik : 36,    -0.684341   -0.684279   -0.684250   -0.684206   -0.684176   -0.684156   -0.684142   -0.684131   -0.684107   -0.684096
ik : 37,    -0.684320   -0.684273   -0.684257   -0.684206   -0.684171   -0.684159   -0.684142   -0.684129   -0.684110   -0.684090
ik : 38,    -0.684337   -0.684276   -0.684251   -0.684221   -0.684187   -0.684160   -0.684139   -0.684128   -0.684106   -0.684078
ik : 39,    -0.684329   -0.684276   -0.684252   -0.684225   -0.684189   -0.684164   -0.684138   -0.684128   -0.684107   -0.684077
ik : 40,    -0.684332   -0.684286   -0.684244   -0.684225   -0.684185   -0.684163   -0.684138   -0.684128   -0.684107   -0.684078
ik : 41,    -0.684335   -0.684278   -0.684250   -0.684224   -0.684181   -0.684162   -0.684141   -0.684126   -0.684111   -0.684084
ik : 42,    -0.684330   -0.684295   -0.684246   -0.684229   -0.684176   -0.684157   -0.684141   -0.684127   -0.684114   -0.684088
ik : 43,    -0.684344   -0.684291   -0.684251   -0.684228   -0.684169   -0.684161   -0.684146   -0.684126   -0.684118   -0.684095
ik : 44,    -0.684335   -0.684299   -0.684247   -0.684231   -0.684177   -0.684151   -0.684145   -0.684126   -0.684118   -0.684096
ik : 45,    -0.684341   -0.684297   -0.684251   -0.684234   -0.684171   -0.684155   -0.684149   -0.684127   -0.684121   -0.684098
ik : 46,    -0.684349   -0.684294   -0.684256   -0.684230   -0.684173   -0.684153   -0.684147   -0.684130   -0.684116   -0.684098
ik : 47,    -0.684350   -0.684276   -0.684261   -0.684223   -0.684174   -0.684158   -0.684143   -0.684127   -0.684112   -0.684091
ik : 48,    -0.684300   -0.684267   -0.684207   -0.684190   -0.684181   -0.684165   -0.684144   -0.684130   -0.684099   -0.684096
ik : 49,    -0.684295   -0.684266   -0.684221   -0.684210   -0.684174   -0.684158   -0.684152   -0.684113   -0.684110   -0.684096
ik : 50,    -0.684303   -0.684256   -0.684227   -0.684210   -0.684173   -0.684155   -0.684151   -0.684125   -0.684102   -0.684083
ik : 51,    -0.684328   -0.684285   -0.684214   -0.684185   -0.684182   -0.684166   -0.684142   -0.684119   -0.684104   -0.684094
ik : 52,    -0.684307   -0.684283   -0.684227   -0.684219   -0.684172   -0.684155   -0.684141   -0.684121   -0.684107   -0.684084
ik : 53,    -0.684345   -0.684248   -0.684236   -0.684225   -0.684168   -0.684150   -0.684145   -0.684118   -0.684102   -0.684082
ik : 54,    -0.684320   -0.684279   -0.684214   -0.684190   -0.684188   -0.684165   -0.684156   -0.684122   -0.684103   -0.684097
ik : 55,    -0.684308   -0.684278   -0.684224   -0.684216   -0.684178   -0.684165   -0.684153   -0.684119   -0.684104   -0.684096
ik : 56,    -0.684332   -0.684260   -0.684235   -0.684215   -0.684179   -0.684163   -0.684151   -0.684132   -0.684101   -0.684096
ik : 57,    -0.684330   -0.684290   -0.684219   -0.684190   -0.684183   -0.684167   -0.684143   -0.684116   -0.684105   -0.684094
ik : 58,    -0.684319   -0.684280   -0.684230   -0.684222   -0.684173   -0.684157   -0.684144   -0.684121   -0.684107   -0.684084
ik : 59,    -0.684352   -0.684255   -0.684238   -0.684229   -0.684169   -0.684155   -0.684147   -0.684120   -0.684102   -0.684087
ik : 60,    -0.684319   -0.684285   -0.684224   -0.684190   -0.684182   -0.684171   -0.684138   -0.684120   -0.684106   -0.684092
ik : 61,    -0.684316   -0.684269   -0.684234   -0.684222   -0.684169   -0.684159   -0.684142   -0.684115   -0.684107   -0.684083
ik : 62,    -0.684323   -0.684264   -0.684235   -0.684223   -0.684168   -0.684158   -0.684142   -0.684116   -0.684105   -0.684082
ik : 63,    -0.684296   -0.684261   -0.684229   -0.684193   -0.684179   -0.684166   -0.684144   -0.684127   -0.684104   -0.684092
ik : 64,    -0.684302   -0.684257   -0.684224   -0.684213   -0.684172   -0.684154   -0.684153   -0.684124   -0.684104   -0.684085
ik : 65,    -0.684293   -0.684263   -0.684221   -0.684211   -0.684173   -0.684156   -0.684151   -0.684114   -0.684108   -0.684093
ik : 66,    -0.684344   -0.684283   -0.684226   -0.684200   -0.684195   -0.684170   -0.684153   -0.684121   -0.684103   -0.684099
ik : 67,    -0.684343   -0.684276   -0.684233   -0.684227   -0.684179   -0.684170   -0.684156   -0.684119   -0.684108   -0.684093
ik : 68,    -0.684353   -0.684267   -0.684238   -0.684227   -0.684178   -0.684169   -0.684156   -0.684125   -0.684106   -0.684095
ik : 69,    -0.684334   -0.684292   -0.684230   -0.684194   -0.684184   -0.684172   -0.684136   -0.684126   -0.684103   -0.684094
ik : 70,    -0.684348   -0.684268   -0.684240   -0.684231   -0.684172   -0.684160   -0.684147   -0.684121   -0.684106   -0.684088
ik : 71,    -0.684338   -0.684273   -0.684236   -0.684228   -0.684173   -0.684159   -0.684146   -0.684120   -0.684106   -0.684085
ik : 72,    -0.684323   -0.684275   -0.684240   -0.684190   -0.684178   -0.684170   -0.684137   -0.684123   -0.684106   -0.684092
ik : 73,    -0.684339   -0.684253   -0.684236   -0.684225   -0.684168   -0.684153   -0.684144   -0.684117   -0.684104   -0.684081
ik : 74,    -0.684312   -0.684278   -0.684230   -0.684221   -0.684172   -0.684157   -0.684141   -0.684118   -0.684108   -0.684085
ik : 75,    -0.684308   -0.684264   -0.684250   -0.684193   -0.684185   -0.684169   -0.684146   -0.684125   -0.684107   -0.684098
ik : 76,    -0.684323   -0.684258   -0.684232   -0.684212   -0.684179   -0.684161   -0.684149   -0.684130   -0.684101   -0.684093
ik : 77,    -0.684302   -0.684277   -0.684222   -0.684214   -0.684177   -0.684163   -0.684151   -0.684118   -0.684105   -0.684096
ik : 78,    -0.684341   -0.684280   -0.684237   -0.684200   -0.684192   -0.684176   -0.684147   -0.684127   -0.684106   -0.684096
ik : 79,    -0.684352   -0.684266   -0.684239   -0.684226   -0.684178   -0.684168   -0.684156   -0.684128   -0.684105   -0.684095
ik : 80,    -0.684336   -0.684277   -0.684232   -0.684225   -0.684179   -0.684169   -0.684154   -0.684118   -0.684107   -0.684093
ik : 81,    -0.684330   -0.684273   -0.684242   -0.684188   -0.684175   -0.684171   -0.684136   -0.684124   -0.684104   -0.684093
ik : 82,    -0.684353   -0.684248   -0.684238   -0.684227   -0.684169   -0.684152   -0.684146   -0.684119   -0.684101   -0.684086
ik : 83,    -0.684306   -0.684286   -0.684227   -0.684221   -0.684172   -0.684156   -0.684142   -0.684122   -0.684106   -0.684084
ik : 84,    -0.684322   -0.684273   -0.684227   -0.684205   -0.684183   -0.684155   -0.684149   -0.684138   -0.684103   -0.684091
[...]
sddk::FFT3D::FFT3D                                                :      2     0.3763     0.0128     0.3635     0.1881     100.00
sddk::FFT3D::prepare                                              :    886     2.8567     0.0027     0.0062     0.0032       0.21
sddk::FFT3D::prepare|cpu                                          :    886     0.0455     0.0000     0.0001     0.0001     100.00
sddk::FFT3D::prepare|gpu                                          :    886     2.8051     0.0027     0.0061     0.0032     100.00
sddk::FFT3D::transform                                            : 595877   521.6703     0.0007     0.1234     0.0009       0.23
sddk::FFT3D::transform_xy                                         : 595877   392.9162     0.0005     0.0035     0.0007     100.00
sddk::FFT3D::transform_z                                          : 595877   127.5784     0.0001     0.1227     0.0002      38.23
sddk::FFT3D::transform_z_serial                                   : 595877    78.8104     0.0001     0.1227     0.0001     100.00
sddk::Gvec::find_gvec_shells                                      :     16     0.2775     0.0087     0.1136     0.0173     100.00
sddk::Gvec::init                                                  :     16     0.4650     0.0146     0.1882     0.0291      40.32
sddk::matrix_storage::matrix_storage                              :   2506    14.4796     0.0000     0.2313     0.0058     100.00
sddk::wave_functions::inner                                       :   9663   152.0587     0.0014     0.1713     0.0157     100.00
sddk::wave_functions::orthogonalize                               :   3361   145.7369     0.0070     0.3051     0.0434      25.33
sddk::wave_functions::transform                                   :   6369     9.6395     0.0001     0.0705     0.0015      98.97
sddk::wave_functions::transform|init                              :   6369     0.0997     0.0000     0.0000     0.0000     100.00
sirius::Augmentation_operator::generate_pw_coeffs                 :      2     0.4937     0.2450     0.2487     0.2468     100.00
sirius::Band::apply_h_o                                           :   3361   678.5447     0.0247     1.7196     0.2019       0.01
sirius::Band::diag_pseudo_potential                               :    406  1390.7950     1.2880     8.8266     3.4256       0.02
sirius::Band::diag_pseudo_potential_davidson                      :    406  1387.5036     1.2801     8.8187     3.4175       1.12
sirius::Band::diag_pseudo_potential_davidson|alloc                :    406    27.9174     0.0668     0.0789     0.0688      89.14
sirius::Band::diag_pseudo_potential_davidson|evp                  :   3347   367.7595     0.0403     0.2242     0.1099     100.00
sirius::Band::diag_pseudo_potential_davidson|iter                 :    406  1274.2852     1.0186     8.4596     3.1386       0.01
sirius::Band::diag_pseudo_potential_davidson|update_phi           :    420     2.3839     0.0032     0.0750     0.0057       0.60
sirius::Band::diag_pseudo_potential_davidson|wf                   :    406     0.1295     0.0000     0.0626     0.0003      99.37
sirius::Band::get_h_diag                                          :    406    28.4088     0.0687     0.1055     0.0700     100.00
sirius::Band::get_o_diag                                          :    406    27.1838     0.0659     0.1050     0.0670     100.00
sirius::Band::initialize_subspace                                 :      1    44.5561    44.5561    44.5561    44.5561       0.00
sirius::Band::initialize_subspace|kp                              :     14    44.5049     2.9800     3.6109     3.1789      12.84
sirius::Band::initialize_subspace|kp|wf                           :     14     3.1924     0.2231     0.2314     0.2280     100.00
sirius::Band::residuals                                           :   3318    54.8443     0.0000     0.1121     0.0165       1.63
sirius::Band::residuals_aux                                       :   2980    49.8449     0.0044     0.1042     0.0167     100.00
sirius::Band::set_subspace_mtrx                                   :   3361    47.4633     0.0015     0.1462     0.0141       2.34
sirius::Band::solve_for_kset                                      :     29  1505.5980    20.1386   113.7974    51.9172       0.00
sirius::Beta_projectors::Beta_projectors                          :     14     0.4164     0.0294     0.0301     0.0297       0.03
sirius::Beta_projectors::generate_pw_coefs_t                      :     14     0.4163     0.0293     0.0301     0.0297     100.00
sirius::Beta_projectors_base::dismiss                             :    826    14.1737     0.0001     0.0551     0.0172     100.00
sirius::Beta_projectors_base::generate                            :   3767    32.4969     0.0073     0.5257     0.0086     100.00
sirius::Beta_projectors_base::inner                               :   3767   129.1657     0.0040     0.1892     0.0343     100.00
sirius::Beta_projectors_base::prepare                             :    826     6.0009     0.0069     0.0119     0.0073     100.00
sirius::DFT_ground_state::ewald_energy                            :      1     0.0366     0.0366     0.0366     0.0366     100.00
sirius::DFT_ground_state::symmetrize                              :     29     0.9588     0.0322     0.0355     0.0331       0.66
sirius::Density::add_k_point_contribution_dm                      :    406    38.2993     0.0706     0.1032     0.0943       2.69
sirius::Density::add_k_point_contribution_rg                      :    406   141.1651     0.3447     0.3587     0.3477       1.79
sirius::Density::augment                                          :     29     1.2526     0.0431     0.0433     0.0432       0.60
sirius::Density::generate_pseudo_core_charge_density              :      1     0.0790     0.0790     0.0790     0.0790       0.21
sirius::Density::generate_rho_aug                                 :     29     1.2451     0.0429     0.0430     0.0429     100.00
sirius::Density::generate_valence                                 :     29   204.4658     7.0342     7.0867     7.0505      11.35
sirius::Density::initial_density                                  :      1     0.1190     0.1190     0.1190     0.1190      21.24
sirius::Density::symmetrize_density_matrix                        :     29     0.0333     0.0011     0.0012     0.0011     100.00
sirius::K_point::generate_gkvec                                   :     14     0.2106     0.0146     0.0153     0.0150       0.13
sirius::K_point::initialize                                       :     14     2.6302     0.1869     0.1884     0.1879      12.41
sirius::K_point_set::sync_band_energies                           :     29   113.2303     0.0003    13.4954     3.9045     100.00
sirius::Local_operator::apply_h                                   :   3361   409.4394     0.0016     0.7807     0.1218       6.41
sirius::Local_operator::prepare                                   :    450     3.2717     0.0039     0.3404     0.0073      76.09
sirius::Non_local_operator::Non_local_operator                    :    840     0.0232     0.0000     0.0000     0.0000     100.00
sirius::Non_local_operator::apply                                 :   6722   141.6826     0.0057     0.1195     0.0211     100.00
sirius::Periodic_function::inner                                  :     87     0.1774     0.0019     0.0022     0.0020      65.43
sirius::Potential::Potential                                      :      1     0.2921     0.2921     0.2921     0.2921      17.58
sirius::Potential::generate_D_operator_matrix                     :     30     1.3476     0.0435     0.0464     0.0449     100.00
sirius::Potential::generate_local_potential                       :      1     0.2408     0.2408     0.2408     0.2408       0.08
sirius::Radial_integrals|aug                                      :      1     0.0323     0.0323     0.0323     0.0323     100.00
sirius::Radial_integrals|beta                                     :      2     0.2316     0.1127     0.1189     0.1158     100.00
sirius::Radial_integrals|rho_core_pseudo                          :      1     0.0155     0.0155     0.0155     0.0155     100.00
sirius::Radial_integrals|rho_pseudo                               :      1     0.0155     0.0155     0.0155     0.0155     100.00
sirius::Radial_integrals|vloc                                     :      1     0.1812     0.1812     0.1812     0.1812     100.00
sirius::Simulation_context::initialize                            :      1     1.4282     1.4282     1.4282     1.4282       0.06
sirius::Simulation_context_base::initialize                       :      1     0.9336     0.9336     0.9336     0.9336       2.89
sirius::Simulation_context_base::make_periodic_function           :      3     0.0496     0.0128     0.0236     0.0165     100.00
sirius::Smooth_periodic_function::fft_transform                   :    151     4.7396     0.0101     0.0966     0.0314      77.82
sirius::Smooth_periodic_function::gather_f_pw                     :    120     1.2723     0.0031     0.3074     0.0106     100.00
sirius::Symmetry::symmetrize_function_pw                          :     29     0.6723     0.0224     0.0254     0.0232      16.37
sirius::Symmetry::symmetrize_function_pw|local                    :     29     0.1667     0.0057     0.0058     0.0057     100.00
sirius::Symmetry::symmetrize_function_pw|mpi                      :     29     0.3956     0.0129     0.0159     0.0136     100.00
--------------------------------------------------------------------------------------------------------------------------------------------
+global_timer ( 1925.4775s, 0.01 % of self, 100.00 % of total)
|--qe|run_pwscf ( 1925.3026s, 99.99 %) 
qe|electrons ( 1913.1580s, 0.00 % of self, 99.36 % of total)
|--qe|electrons|scf ( 1862.7379s, 97.36 %) 
|--qe|electrons|init (   50.4130s, 2.64 %) 
qe|electrons|init (   50.4130s, 10.17 % of self, 2.62 % of total)
|--sirius::Band::initialize_subspace (   44.5561s, 88.38 %) 
|--sirius::Potential::Potential (    0.2921s, 0.58 %) 
|--sirius::Density::initial_density (    0.1190s, 0.24 %) 
|--sirius::Smooth_periodic_function::fft_transform (    0.1029s, 0.20 %) 
|--sirius::Density::generate_pseudo_core_charge_density (    0.0790s, 0.16 %) 
|--sirius::Smooth_periodic_function::gather_f_pw (    0.0543s, 0.11 %) 
|--sirius::Potential::generate_D_operator_matrix (    0.0450s, 0.09 %) 
|--sirius::DFT_ground_state::ewald_energy (    0.0366s, 0.07 %) 
|--sirius::Band::Band (    0.0000s, 0.00 %) 
qe|electrons|scf ( 1862.7379s, 0.01 % of self, 96.74 % of total)
|--sirius::Band::solve_for_kset ( 1505.5980s, 80.83 %) 
|--sirius::Density::generate_valence (  204.4658s, 10.98 %) 
|--qe|veff (  130.3477s, 7.00 %) 
|--qe|mix (   20.0989s, 1.08 %) 
|--sirius::Smooth_periodic_function::fft_transform (    0.9660s, 0.05 %) 
|--sirius::DFT_ground_state::symmetrize (    0.9588s, 0.05 %) 
|--sirius::Periodic_function::inner (    0.1161s, 0.01 %) 
qe|mix (   20.0989s, 93.80 % of self, 1.04 % of total)
|--sirius::Smooth_periodic_function::fft_transform (    0.9872s, 4.91 %) 
|--sirius::Smooth_periodic_function::gather_f_pw (    0.2585s, 1.29 %) 
qe|run_pwscf ( 1925.3026s, 0.03 % of self, 99.99 % of total)
|--qe|run_pwscf|electrons ( 1913.1580s, 99.37 %) 
|--qe|run_pwscf|punch (    5.1869s, 0.27 %) 
|--qe|run_pwscf|setup_sirius (    4.0723s, 0.21 %) 
|--qe|run_pwscf|init_run (    2.2056s, 0.11 %) 
|--qe|run_pwscf|setup (    0.0119s, 0.00 %) 
|--qe|run_pwscf|ions (    0.0000s, 0.00 %) 
|--qe|run_pwscf|forces (    0.0000s, 0.00 %) 
|--qe|run_pwscf|stress (    0.0000s, 0.00 %) 
qe|run_pwscf|electrons ( 1913.1580s, 0.00 % of self, 99.36 % of total)
|--qe|electrons ( 1913.1580s, 100.00 %) 
qe|veff (  130.3477s, 97.29 % of self, 6.77 % of total)
|--sirius::Smooth_periodic_function::fft_transform (    2.2354s, 1.71 %) 
|--sirius::Potential::generate_D_operator_matrix (    1.3026s, 1.00 %) 
sddk::FFT3D::transform (  521.6703s, 0.23 % of self, 27.09 % of total)
|--sddk::FFT3D::transform_xy (  392.9162s, 75.32 %) 
|--sddk::FFT3D::transform_z (  127.5784s, 24.46 %) 
sddk::FFT3D::transform_z (  127.5784s, 38.23 % of self, 6.63 % of total)
|--sddk::FFT3D::transform_z_serial (   78.8104s, 61.77 %) 
sddk::wave_functions::orthogonalize (  145.7369s, 25.33 % of self, 7.57 % of total)
|--sddk::wave_functions::inner (  105.7059s, 72.53 %) 
|--sddk::wave_functions::transform (    3.1199s, 2.14 %) 
sirius::Band::apply_h_o (  678.5447s, 0.01 % of self, 35.24 % of total)
|--sirius::Local_operator::apply_h (  409.4394s, 60.34 %) 
|--sirius::Non_local_operator::apply (  141.6826s, 20.88 %) 
|--sirius::Beta_projectors_base::inner (   98.0250s, 14.45 %) 
|--sirius::Beta_projectors_base::generate (   29.3206s, 4.32 %) 
sirius::Band::diag_pseudo_potential ( 1390.7950s, 0.02 % of self, 72.23 % of total)
|--sirius::Band::diag_pseudo_potential_davidson ( 1387.5036s, 99.76 %) 
|--sirius::Local_operator::prepare (    1.6405s, 0.12 %) 
|--sddk::FFT3D::prepare (    1.3151s, 0.09 %) 
|--sirius::Non_local_operator::Non_local_operator (    0.0222s, 0.00 %) 
sirius::Band::diag_pseudo_potential_davidson ( 1387.5036s, 1.12 % of self, 72.06 % of total)
|--sirius::Band::diag_pseudo_potential_davidson|iter ( 1274.2852s, 91.84 %) 
|--sirius::Band::get_h_diag (   28.4088s, 2.05 %) 
|--sirius::Band::diag_pseudo_potential_davidson|alloc (   27.9174s, 2.01 %) 
|--sirius::Band::get_o_diag (   27.1838s, 1.96 %) 
|--sirius::Beta_projectors_base::dismiss (   14.0854s, 1.02 %) 
|--sirius::Band::diag_pseudo_potential_davidson|wf (    0.1295s, 0.01 %) 
sirius::Band::diag_pseudo_potential_davidson|alloc (   27.9174s, 89.14 % of self, 1.45 % of total)
|--sirius::Beta_projectors_base::prepare (    3.0321s, 10.86 %) 
sirius::Band::diag_pseudo_potential_davidson|iter ( 1274.2852s, 0.01 % of self, 66.18 % of total)
|--sirius::Band::apply_h_o (  660.3390s, 51.82 %) 
|--sirius::Band::diag_pseudo_potential_davidson|evp (  367.7595s, 28.86 %) 
|--sddk::wave_functions::orthogonalize (  142.7566s, 11.20 %) 
|--sirius::Band::residuals (   54.8443s, 4.30 %) 
|--sirius::Band::set_subspace_mtrx (   46.1043s, 3.62 %) 
|--sirius::Band::diag_pseudo_potential_davidson|update_phi (    2.3839s, 0.19 %) 
sirius::Band::initialize_subspace (   44.5561s, 0.00 % of self, 2.31 % of total)
|--sirius::Band::initialize_subspace|kp (   44.5049s, 99.88 %) 
|--sirius::Local_operator::prepare (    0.0506s, 0.11 %) 
sirius::Band::initialize_subspace|kp (   44.5049s, 12.84 % of self, 2.31 % of total)
|--sirius::Band::apply_h_o (   18.2057s, 40.91 %) 
|--sddk::matrix_storage::matrix_storage (   12.8020s, 28.77 %) 
|--sirius::Band::initialize_subspace|kp|wf (    3.1924s, 7.17 %) 
|--sddk::wave_functions::orthogonalize (    2.9803s, 6.70 %) 
|--sirius::Band::set_subspace_mtrx (    1.3590s, 3.05 %) 
|--sirius::Beta_projectors_base::prepare (    0.1044s, 0.23 %) 
|--sirius::Local_operator::prepare (    0.0563s, 0.13 %) 
|--sddk::wave_functions::transform (    0.0453s, 0.10 %) 
|--sddk::FFT3D::prepare (    0.0426s, 0.10 %) 
|--sirius::Beta_projectors_base::dismiss (    0.0013s, 0.00 %) 
|--sirius::Non_local_operator::Non_local_operator (    0.0010s, 0.00 %) 
sirius::Band::residuals (   54.8443s, 1.63 % of self, 2.85 % of total)
|--sirius::Band::residuals_aux (   49.8449s, 90.88 %) 
|--sddk::wave_functions::transform (    4.1046s, 7.48 %) 
sirius::Band::set_subspace_mtrx (   47.4633s, 2.34 % of self, 2.47 % of total)
|--sddk::wave_functions::inner (   46.3528s, 97.66 %) 
sirius::Band::solve_for_kset ( 1505.5980s, 0.00 % of self, 78.19 % of total)
|--sirius::Band::diag_pseudo_potential ( 1390.7950s, 92.37 %) 
|--sirius::K_point_set::sync_band_energies (  113.2303s, 7.52 %) 
|--sirius::Local_operator::prepare (    1.5243s, 0.10 %) 
sirius::Density::add_k_point_contribution_dm (   38.2993s, 2.69 % of self, 1.99 % of total)
|--sirius::Beta_projectors_base::inner (   31.1406s, 81.31 %) 
|--sirius::Beta_projectors_base::generate (    3.1763s, 8.29 %) 
|--sirius::Beta_projectors_base::prepare (    2.8644s, 7.48 %) 
|--sirius::Beta_projectors_base::dismiss (    0.0871s, 0.23 %) 
sirius::Density::add_k_point_contribution_rg (  141.1651s, 1.79 % of self, 7.33 % of total)
|--sddk::FFT3D::transform (  137.3555s, 97.30 %) 
|--sddk::FFT3D::prepare (    1.2820s, 0.91 %) 
sirius::Density::generate_valence (  204.4658s, 11.35 % of self, 10.62 % of total)
|--sirius::Density::add_k_point_contribution_rg (  141.1651s, 69.04 %) 
|--sirius::Density::add_k_point_contribution_dm (   38.2993s, 18.73 %) 
|--sirius::Density::augment (    1.2526s, 0.61 %) 
|--sirius::Smooth_periodic_function::fft_transform (    0.2968s, 0.15 %) 
|--sddk::FFT3D::prepare (    0.1041s, 0.05 %) 
|--sirius::Smooth_periodic_function::gather_f_pw (    0.0954s, 0.05 %) 
|--sirius::Density::symmetrize_density_matrix (    0.0333s, 0.02 %) 
|--sddk::matrix_storage::remap_forward (    0.0023s, 0.00 %) 
sirius::Local_operator::apply_h (  409.4394s, 6.41 % of self, 21.26 % of total)
|--sddk::FFT3D::transform (  383.1739s, 93.59 %) 
|--sddk::matrix_storage::remap_forward (    0.0041s, 0.00 %) 
|--sddk::matrix_storage::remap_backward (    0.0009s, 0.00 %) 

     init_run     :     12.75s CPU      2.21s WALL (       1 calls)

     Called by init_run:

     Called by electrons:
     v_of_rho     :    210.15s CPU    116.70s WALL (      30 calls)
     v_h          :     13.74s CPU      4.56s WALL (      30 calls)
     v_xc         :    196.17s CPU    111.89s WALL (      30 calls)
     mix_rho      :     37.75s CPU     13.77s WALL (      29 calls)

     Called by c_bands:

     Called by sum_band:

     Called by *egterg:

     Called by h_psi:

     General routines
     fft          :    145.36s CPU     34.38s WALL (     388 calls)

     Parallel routines
     fft_scatter  :     23.17s CPU     19.87s WALL (     388 calls)

     PWSCF        :     1h15m CPU        0h32m WALL


   This run was terminated on:  18: 1:12   8Aug2017            

=------------------------------------------------------------------------------=
   JOB DONE.
=------------------------------------------------------------------------------=
Note: The following floating-point exceptions are signalling: IEEE_UNDERFLOW_FLAG IEEE_DENORMAL
Note: The following floating-point exceptions are signalling: IEEE_UNDERFLOW_FLAG IEEE_DENORMAL
Note: The following floating-point exceptions are signalling: IEEE_UNDERFLOW_FLAG IEEE_DENORMAL
Note: The following floating-point exceptions are signalling: IEEE_UNDERFLOW_FLAG IEEE_DENORMAL
Note: The following floating-point exceptions are signalling: IEEE_UNDERFLOW_FLAG IEEE_DENORMAL
Note: The following floating-point exceptions are signalling: IEEE_UNDERFLOW_FLAG IEEE_DENORMAL
Note: The following floating-point exceptions are signalling: IEEE_UNDERFLOW_FLAG IEEE_DENORMAL
Note: The following floating-point exceptions are signalling: IEEE_UNDERFLOW_FLAG IEEE_DENORMAL
Note: The following floating-point exceptions are signalling: IEEE_UNDERFLOW_FLAG IEEE_DENORMAL
Note: The following floating-point exceptions are signalling: IEEE_UNDERFLOW_FLAG IEEE_DENORMAL
Note: The following floating-point exceptions are signalling: IEEE_UNDERFLOW_FLAG IEEE_DENORMAL
Note: The following floating-point exceptions are signalling: IEEE_UNDERFLOW_FLAG IEEE_DENORMAL
Note: The following floating-point exceptions are signalling: IEEE_UNDERFLOW_FLAG IEEE_DENORMAL
Note: The following floating-point exceptions are signalling: IEEE_UNDERFLOW_FLAG IEEE_DENORMAL
Note: The following floating-point exceptions are signalling: IEEE_UNDERFLOW_FLAG IEEE_DENORMAL
Note: The following floating-point exceptions are signalling: IEEE_UNDERFLOW_FLAG IEEE_DENORMAL
