rm: cannot remove ‘core*’: No such file or directory

     Program PWSCF v.6.1 starts on  9Aug2017 at  9:32:54 

     This program is part of the open-source Quantum ESPRESSO suite
     for quantum simulation of materials; please cite
         "P. Giannozzi et al., J. Phys.:Condens. Matter 21 395502 (2009);
          URL http://www.quantum-espresso.org", 
     in publications or presentations arising from this work. More details at
     http://www.quantum-espresso.org/quote

     Parallel version (MPI & OpenMP), running on      80 processor cores
     Number of MPI processes:                 8
     Threads/MPI process:                    10
     K-points division:     npool     =       8
     Reading input from pw.in
SIRIUS 4.7, git hash: d75abff3bebe8471eec883d10636ecc565e4a4f2

     Current dimensions of program PWSCF are:
     Max number of different atomic species (ntypx) = 10
     Max number of k-points (npk) =  40000
     Max angular momentum in pseudopotentials (lmaxx) =  3

     Subspace diagonalization in iterative solution of the eigenvalue problem:
     a serial algorithm will be used


   Info: using nr1, nr2, nr3 values from input

     G-vector sticks info
     --------------------
     sticks:   dense  smooth     PW     G-vecs:    dense   smooth      PW
     Sum       24439   12235   3283              2526263   892711  123717



     bravais-lattice index     =            0
     lattice parameter (alat)  =      31.4056  a.u.
     unit-cell volume          =   21903.1443 (a.u.)^3
     number of atoms/cell      =           54
     number of atomic types    =            2
     number of electrons       =       432.00
     number of Kohn-Sham states=          259
     kinetic-energy cutoff     =      45.0000  Ry
     charge density cutoff     =     360.0000  Ry
     convergence threshold     =      5.4E-07
     mixing beta               =       0.3500
     number of iterations used =            8  plain     mixing
     Exchange-correlation      = SLA  PW   PBE  PBE ( 1  4  3  4 0 0)

     celldm(1)=  31.405604  celldm(2)=   0.000000  celldm(3)=   0.000000
     celldm(4)=   0.000000  celldm(5)=   0.000000  celldm(6)=   0.000000

     crystal axes: (cart. coord. in units of alat)
               a(1) = (   1.000000   0.000000   0.000000 )  
               a(2) = (  -0.500000   0.707107  -0.500000 )  
               a(3) = (   0.000000   0.000000   1.000000 )  

     reciprocal axes: (cart. coord. in units 2 pi/alat)
               b(1) = (  1.000000  0.707107 -0.000000 )  
               b(2) = (  0.000000  1.414214  0.000000 )  
               b(3) = ( -0.000000  0.707107  1.000000 )  


     PseudoPot. # 1 for Cs read from file:
     ./pseudo/Cs_pbe_v1.uspp.F.UPF
     MD5 check sum: 3476d69cb178dfad3ffaa59df4e07ca4
     Pseudo is Ultrasoft + core correction, Zval =  9.0
     Generated by new atomic code, or converted to UPF format
     Using radial grid of  905 points,  6 beta functions with: 
                l(1) =   0
                l(2) =   0
                l(3) =   1
                l(4) =   1
                l(5) =   2
                l(6) =   2
     Q(r) pseudized with  6 coefficients,  rinner =    1.500   1.500   1.500
                                                       1.500   1.500

     PseudoPot. # 2 for I  read from file:
     ./pseudo/I_pbe_v1.uspp.F.UPF
     MD5 check sum: 51366c2fb896752a147e77acbb9f6bcb
     Pseudo is Ultrasoft + core correction, Zval =  7.0
     Generated by new atomic code, or converted to UPF format
     Using radial grid of  893 points,  6 beta functions with: 
                l(1) =   0
                l(2) =   0
                l(3) =   1
                l(4) =   1
                l(5) =   2
                l(6) =   2
     Q(r) pseudized with  8 coefficients,  rinner =    1.500   1.500   1.500
                                                       1.500   1.500

     atomic species   valence    mass     pseudopotential
        Cs             9.00   132.90545     Cs( 1.00)
        I              7.00   126.90447     I ( 1.00)

     No symmetry found


                                    s                        frac. trans.

      isym =  1     identity                                     

 cryst.   s( 1) = (     1          0          0      )
                  (     0          1          0      )
                  (     0          0          1      )

 cart.    s( 1) = (  1.0000000  0.0000000  0.0000000 )
                  (  0.0000000  1.0000000  0.0000000 )
                  (  0.0000000  0.0000000  1.0000000 )


   Cartesian axes

     site n.     atom                  positions (a.u.)
         1           Cs  tau(   1) = (  15.7567088  22.0681150  15.6777486  )
         2           Cs  tau(   2) = (  15.5797094  22.1674162  -5.3125422  )
         3           Cs  tau(   3) = (  15.6206425  22.0820821   5.2125602  )
         4           Cs  tau(   4) = (  26.1253071   7.2862844  -5.1490631  )
         5           Cs  tau(   5) = (  26.1782224   7.2681475   5.1650487  )
         6           Cs  tau(   6) = (  -5.2654524   7.5321059  15.7738754  )
         7           Cs  tau(   7) = ( -10.4855889  14.9308094 -10.3868559  )
         8           Cs  tau(   8) = ( -10.3331288  14.7413908   0.0225040  )
         9           Cs  tau(   9) = (  20.8314272  14.9118750  10.4832802  )
        10           Cs  tau(  10) = (  10.3717088   0.0922588  31.3351213  )
        11           Cs  tau(  11) = (  -5.3749842  22.2061828  -5.1790158  )
        12           Cs  tau(  12) = (  10.3859172   0.0742297  21.0396323  )
        13           Cs  tau(  13) = (   5.2820790   7.5457824  -5.2327505  )
        14           Cs  tau(  14) = (   5.2097947   7.2549683   5.2112877  )
        15           Cs  tau(  15) = (   5.3835492   7.4213821  15.6883673  )
        16           Cs  tau(  16) = (  -0.0530397  14.7172458 -10.3572437  )
        17           Cs  tau(  17) = (  -0.0493768  14.6681664  -0.0419924  )
        18           Cs  tau(  18) = (   0.0421442  14.8785765  10.5935445  )
        19           Cs  tau(  19) = (  20.8907429   0.0815275   0.1185830  )
        20           Cs  tau(  20) = (  20.9432845   0.0812971  10.5958413  )
        21           Cs  tau(  21) = (  21.0032837   0.1358437  20.9411899  )
        22           Cs  tau(  22) = (  15.8206137   7.4246678  26.0792601  )
        23           Cs  tau(  23) = (  15.7807894   7.3931748   5.1050845  )
        24           Cs  tau(  24) = (  15.5726632   7.4630480  15.7501000  )
        25           Cs  tau(  25) = (  10.5880232  14.8435362 -10.3844368  )
        26           Cs  tau(  26) = (  10.5710729  14.8772789  -0.0841392  )
        27           Cs  tau(  27) = (  10.5917441  14.8407709  10.3886828  )
        28           I   tau(  28) = (   5.2490891   0.1503857   5.2298787  )
        29           I   tau(  29) = (   5.1073247   0.0035600  15.7848246  )
        30           I   tau(  30) = (   5.1271788   0.1060008  26.1836125  )
        31           I   tau(  31) = (   0.0828421   7.5269935   0.0214818  )
        32           I   tau(  32) = (   0.0465070   7.2925686  10.3756093  )
        33           I   tau(  33) = (   0.0120975   7.4268868  21.0857554  )
        34           I   tau(  34) = (  -5.2343842  14.7976706  -5.3852799  )
        35           I   tau(  35) = (  -5.1763544  14.7510278   5.1053663  )
        36           I   tau(  36) = (  -5.1102776  14.8609467  15.7685486  )
        37           I   tau(  37) = (   0.1247830  22.1725965 -10.3904807  )
        38           I   tau(  38) = (  15.6351237   0.1330706  15.6789976  )
        39           I   tau(  39) = (  15.8053616   0.0280091  26.2788165  )
        40           I   tau(  40) = (  10.3619593   7.3951589  -0.1069788  )
        41           I   tau(  41) = (  10.5692270   7.4208203  10.5797802  )
        42           I   tau(  42) = (  10.3714655   7.2933621  20.9764299  )
        43           I   tau(  43) = (   5.1095655  14.8899995  -5.2402451  )
        44           I   tau(  44) = (   5.1208868  14.8587383   5.1500994  )
        45           I   tau(  45) = (   5.1460214  14.8064135  15.8255404  )
        46           I   tau(  46) = (  10.5842630  22.1201890 -10.5121872  )
        47           I   tau(  47) = (  10.3322788  22.1437979   0.0167324  )
        48           I   tau(  48) = (  26.2273575   0.0969202  26.0697348  )
        49           I   tau(  49) = (  20.8014627   7.3355475  -0.0003023  )
        50           I   tau(  50) = (  20.8961625   7.3353978  10.5977473  )
        51           I   tau(  51) = (  20.8597873   7.5288633  20.9073676  )
        52           I   tau(  52) = (  15.7971746  14.9181078  -5.2011424  )
        53           I   tau(  53) = (  15.8408514  14.8659140   5.2268221  )
        54           I   tau(  54) = (  15.6550028  14.9414326  15.6593713  )

   Crystallographic axes

     site n.     atom                  positions (cryst. coord.)
         1           Cs  tau(   1) = (  0.9985868  0.9937407  0.9960726  )
         2           Cs  tau(   2) = (  0.9951867  0.9982123  0.3299471  )
         3           Cs  tau(   3) = (  0.9945687  0.9943697  0.6631603  )
         4           Cs  tau(   4) = (  0.9959206  0.3281058  0.0000993  )
         5           Cs  tau(   5) = (  0.9971971  0.3272891  0.3281072  )
         6           Cs  tau(   6) = (  0.0019280  0.3391753  0.6718507  )
         7           Cs  tau(   7) = (  0.0022954  0.6723435  0.0054392  )
         8           Cs  tau(   8) = (  0.0028851  0.6638138  0.3326235  )
         9           Cs  tau(   9) = (  0.9990483  0.6714908  0.6695483  )
        10           Cs  tau(  10) = (  0.3323275  0.0041545  0.9998330  )
        11           Cs  tau(  11) = (  0.3288317  0.9999580  0.3350716  )
        12           Cs  tau(  12) = (  0.3323740  0.0033426  0.6716037  )
        13           Cs  tau(  13) = (  0.3380847  0.3397912  0.0032772  )
        14           Cs  tau(  14) = (  0.3292352  0.3266957  0.3292828  )
        15           Cs  tau(  15) = (  0.3385147  0.3341894  0.6666351  )
        16           Cs  tau(  16) = (  0.3296744  0.6627266  0.0015736  )
        17           Cs  tau(  17) = (  0.3286860  0.6605165  0.3289212  )
        18           Cs  tau(  18) = (  0.3363376  0.6699914  0.6723095  )
        19           Cs  tau(  19) = (  0.6670272  0.0036712  0.0056115  )
        20           Cs  tau(  20) = (  0.6686950  0.0036609  0.3392174  )
        21           Cs  tau(  21) = (  0.6718336  0.0061171  0.6698564  )
        22           Cs  tau(  22) = (  0.6709200  0.3343373  0.9975701  )
        23           Cs  tau(  23) = (  0.6689428  0.3329192  0.3290129  )
        24           Cs  tau(  24) = (  0.6638890  0.3360656  0.6695388  )
        25           Cs  tau(  25) = (  0.6713448  0.6684135  0.0035512  )
        26           Cs  tau(  26) = (  0.6715648  0.6699330  0.3322874  )
        27           Cs  tau(  27) = (  0.6714010  0.6682890  0.6649352  )
        28           I   tau(  28) = (  0.1705246  0.0067720  0.1699129  )
        29           I   tau(  29) = (  0.1627048  0.0001603  0.5026919  )
        30           I   tau(  30) = (  0.1656435  0.0047733  0.8361108  )
        31           I   tau(  31) = (  0.1721104  0.3389451  0.1701566  )
        32           I   tau(  32) = (  0.1656753  0.3283888  0.4945689  )
        33           I   tau(  33) = (  0.1676038  0.3344373  0.8386197  )
        34           I   tau(  34) = (  0.1665037  0.6663482  0.1616990  )
        35           I   tau(  35) = (  0.1673013  0.6642478  0.4946862  )
        36           I   tau(  36) = (  0.1718801  0.6691975  0.8366922  )
        37           I   tau(  37) = (  0.5031961  0.9984456  0.1683748  )
        38           I   tau(  38) = (  0.5008411  0.0059923  0.5022382  )
        39           I   tau(  39) = (  0.5038963  0.0012613  0.8373863  )
        40           I   tau(  40) = (  0.4964441  0.3330085  0.1630979  )
        41           I   tau(  41) = (  0.5036216  0.3341641  0.5039576  )
        42           I   tau(  42) = (  0.4944548  0.3284246  0.8321322  )
        43           I   tau(  43) = (  0.4979489  0.6705058  0.1683959  )
        44           I   tau(  44) = (  0.4976055  0.6690981  0.4985357  )
        45           I   tau(  45) = (  0.4972277  0.6667419  0.8372791  )
        46           I   tau(  46) = (  0.8350611  0.9960856  0.1633195  )
        47           I   tau(  47) = (  0.8275691  0.9971488  0.4991072  )
        48           I   tau(  48) = (  0.8372993  0.0043644  0.8322804  )
        49           I   tau(  49) = (  0.8275108  0.3303242  0.1651525  )
        50           I   tau(  50) = (  0.8305229  0.3303174  0.5026064  )
        51           I   tau(  51) = (  0.8337205  0.3390293  0.8352356  )
        52           I   tau(  52) = (  0.8388907  0.6717715  0.1702738  )
        53           I   tau(  53) = (  0.8391063  0.6694212  0.5011402  )
        54           I   tau(  54) = (  0.8348889  0.6728218  0.8350280  )

     number of k points=   220  Marzari-Vanderbilt smearing, width (Ry)=  0.0200
                       cart. coord. in units 2pi/alat
        k(    1) = (   0.0000000   0.0000000   0.0000000), wk =   0.0133333
        k(    2) = (   0.0000000   0.1414214   0.2000000), wk =   0.0133333
        k(    3) = (   0.0000000   0.2828427   0.4000000), wk =   0.0133333
        k(    4) = (   0.0000000   0.2357023   0.0000000), wk =   0.0266667
        k(    5) = (   0.0000000   0.3771236   0.2000000), wk =   0.0133333
        k(    6) = (   0.0000000   0.5185450   0.4000000), wk =   0.0133333
        k(    7) = (   0.0000000  -0.0471405  -0.4000000), wk =   0.0133333
        k(    8) = (   0.0000000   0.0942809  -0.2000000), wk =   0.0133333
        k(    9) = (   0.0000000   0.4714045   0.0000000), wk =   0.0266667
        k(   10) = (   0.0000000   0.6128259   0.2000000), wk =   0.0133333
        k(   11) = (   0.0000000   0.7542472   0.4000000), wk =   0.0133333
        k(   12) = (   0.0000000   0.1885618  -0.4000000), wk =   0.0133333
        k(   13) = (   0.0000000   0.3299832  -0.2000000), wk =   0.0133333
        k(   14) = (   0.0000000  -0.7071068   0.0000000), wk =   0.0133333
        k(   15) = (   0.0000000  -0.5656854   0.2000000), wk =   0.0133333
        k(   16) = (   0.0000000  -0.4242641   0.4000000), wk =   0.0133333
        k(   17) = (   0.2000000   0.2828427   0.2000000), wk =   0.0066667
        k(   18) = (   0.2000000   0.4242641   0.4000000), wk =   0.0066667
        k(   19) = (   0.2000000  -0.1414214  -0.4000000), wk =   0.0066667
        k(   20) = (   0.2000000   0.0000000  -0.2000000), wk =   0.0133333
        k(   21) = (   0.2000000   0.5185450   0.2000000), wk =   0.0066667
        k(   22) = (   0.2000000   0.6599663   0.4000000), wk =   0.0066667
        k(   23) = (   0.2000000   0.0942809  -0.4000000), wk =   0.0066667
        k(   24) = (   0.2000000   0.2357023  -0.2000000), wk =   0.0133333
        k(   25) = (   0.2000000   0.7542472   0.2000000), wk =   0.0066667
        k(   26) = (   0.2000000   0.8956686   0.4000000), wk =   0.0066667
        k(   27) = (   0.2000000   0.3299832  -0.4000000), wk =   0.0066667
        k(   28) = (   0.2000000   0.4714045  -0.2000000), wk =   0.0133333
        k(   29) = (   0.2000000  -0.4242641   0.2000000), wk =   0.0066667
        k(   30) = (   0.2000000  -0.2828427   0.4000000), wk =   0.0066667
        k(   31) = (   0.2000000  -0.8485281  -0.4000000), wk =   0.0066667
        k(   32) = (   0.2000000  -0.7071068  -0.2000000), wk =   0.0133333
        k(   33) = (   0.2000000  -0.1885618   0.2000000), wk =   0.0066667
        k(   34) = (   0.2000000  -0.0471405   0.4000000), wk =   0.0066667
        k(   35) = (   0.2000000  -0.6128259  -0.4000000), wk =   0.0066667
        k(   36) = (   0.2000000   0.0471405   0.2000000), wk =   0.0066667
        k(   37) = (   0.2000000   0.1885618   0.4000000), wk =   0.0066667
        k(   38) = (   0.2000000  -0.3771236  -0.4000000), wk =   0.0066667
        k(   39) = (   0.4000000   0.5656854   0.4000000), wk =   0.0066667
        k(   40) = (   0.4000000  -0.0000000  -0.4000000), wk =   0.0133333
        k(   41) = (   0.4000000   0.8013877   0.4000000), wk =   0.0066667
        k(   42) = (   0.4000000   0.2357023  -0.4000000), wk =   0.0133333
        k(   43) = (   0.4000000   1.0370899   0.4000000), wk =   0.0066667
        k(   44) = (   0.4000000   0.4714045  -0.4000000), wk =   0.0133333
        k(   45) = (   0.4000000  -0.1414214   0.4000000), wk =   0.0066667
        k(   46) = (   0.4000000  -0.7071068  -0.4000000), wk =   0.0133333
        k(   47) = (   0.4000000   0.0942809   0.4000000), wk =   0.0066667
        k(   48) = (   0.4000000   0.3299832   0.4000000), wk =   0.0066667
        k(   49) = (   0.0000000  -0.1414214   0.2000000), wk =   0.0133333
        k(   50) = (   0.2000000  -0.1414214   0.0000000), wk =   0.0133333
        k(   51) = (  -0.2000000  -0.1414214   0.0000000), wk =   0.0133333
        k(   52) = (   0.0000000  -0.2828427   0.4000000), wk =   0.0133333
        k(   53) = (   0.4000000  -0.2828427   0.0000000), wk =   0.0133333
        k(   54) = (  -0.4000000  -0.2828427   0.0000000), wk =   0.0133333
        k(   55) = (   0.0000000  -0.3771236   0.2000000), wk =   0.0133333
        k(   56) = (   0.2000000  -0.3771236   0.0000000), wk =   0.0133333
        k(   57) = (  -0.2000000  -0.3771236   0.0000000), wk =   0.0133333
        k(   58) = (   0.0000000  -0.5185450   0.4000000), wk =   0.0133333
        k(   59) = (   0.4000000  -0.5185450   0.0000000), wk =   0.0133333
        k(   60) = (  -0.4000000  -0.5185450   0.0000000), wk =   0.0133333
        k(   61) = (   0.0000000   0.0471405  -0.4000000), wk =   0.0133333
        k(   62) = (  -0.4000000   0.0471405   0.0000000), wk =   0.0133333
        k(   63) = (   0.4000000   0.0471405   0.0000000), wk =   0.0133333
        k(   64) = (   0.0000000  -0.0942809  -0.2000000), wk =   0.0133333
        k(   65) = (  -0.2000000  -0.0942809   0.0000000), wk =   0.0133333
        k(   66) = (   0.2000000  -0.0942809   0.0000000), wk =   0.0133333
        k(   67) = (   0.0000000  -0.6128259   0.2000000), wk =   0.0133333
        k(   68) = (   0.2000000  -0.6128259   0.0000000), wk =   0.0133333
        k(   69) = (  -0.2000000  -0.6128259   0.0000000), wk =   0.0133333
        k(   70) = (   0.0000000  -0.7542472   0.4000000), wk =   0.0133333
        k(   71) = (   0.4000000  -0.7542472   0.0000000), wk =   0.0133333
        k(   72) = (  -0.4000000  -0.7542472   0.0000000), wk =   0.0133333
        k(   73) = (   0.0000000  -0.1885618  -0.4000000), wk =   0.0133333
        k(   74) = (  -0.4000000  -0.1885618   0.0000000), wk =   0.0133333
        k(   75) = (   0.4000000  -0.1885618   0.0000000), wk =   0.0133333
        k(   76) = (   0.0000000  -0.3299832  -0.2000000), wk =   0.0133333
        k(   77) = (  -0.2000000  -0.3299832   0.0000000), wk =   0.0133333
        k(   78) = (   0.2000000  -0.3299832   0.0000000), wk =   0.0133333
        k(   79) = (   0.0000000   0.5656854   0.2000000), wk =   0.0133333
        k(   80) = (   0.2000000   0.5656854   0.0000000), wk =   0.0133333
        k(   81) = (  -0.2000000   0.5656854   0.0000000), wk =   0.0133333
        k(   82) = (   0.0000000   0.4242641   0.4000000), wk =   0.0133333
        k(   83) = (   0.4000000   0.4242641   0.0000000), wk =   0.0133333
        k(   84) = (  -0.4000000   0.4242641   0.0000000), wk =   0.0133333
        k(   85) = (  -0.2000000  -0.2828427   0.2000000), wk =   0.0066667
        k(   86) = (  -0.2000000   0.2828427  -0.2000000), wk =   0.0066667
        k(   87) = (   0.2000000  -0.2828427  -0.2000000), wk =   0.0066667
        k(   88) = (  -0.2000000  -0.4242641   0.4000000), wk =   0.0066667
        k(   89) = (  -0.2000000   0.4242641  -0.4000000), wk =   0.0066667
        k(   90) = (   0.2000000  -0.4242641  -0.4000000), wk =   0.0066667
        k(   91) = (   0.4000000  -0.4242641   0.2000000), wk =   0.0066667
        k(   92) = (  -0.4000000  -0.4242641  -0.2000000), wk =   0.0066667
        k(   93) = (   0.4000000   0.4242641  -0.2000000), wk =   0.0066667
        k(   94) = (  -0.4000000   0.4242641   0.2000000), wk =   0.0066667
        k(   95) = (  -0.2000000   0.1414214  -0.4000000), wk =   0.0066667
        k(   96) = (  -0.2000000  -0.1414214   0.4000000), wk =   0.0066667
        k(   97) = (   0.2000000   0.1414214   0.4000000), wk =   0.0066667
        k(   98) = (  -0.4000000   0.1414214   0.2000000), wk =   0.0066667
        k(   99) = (   0.4000000   0.1414214  -0.2000000), wk =   0.0066667
        k(  100) = (  -0.4000000  -0.1414214  -0.2000000), wk =   0.0066667
        k(  101) = (   0.4000000  -0.1414214   0.2000000), wk =   0.0066667
        k(  102) = (  -0.2000000  -0.0000000  -0.2000000), wk =   0.0133333
        k(  103) = (  -0.2000000  -0.5185450   0.2000000), wk =   0.0066667
        k(  104) = (  -0.2000000   0.5185450  -0.2000000), wk =   0.0066667
        k(  105) = (   0.2000000  -0.5185450  -0.2000000), wk =   0.0066667
        k(  106) = (  -0.2000000  -0.6599663   0.4000000), wk =   0.0066667
        k(  107) = (  -0.2000000   0.6599663  -0.4000000), wk =   0.0066667
        k(  108) = (   0.2000000  -0.6599663  -0.4000000), wk =   0.0066667
        k(  109) = (   0.4000000  -0.6599663   0.2000000), wk =   0.0066667
        k(  110) = (  -0.4000000  -0.6599663  -0.2000000), wk =   0.0066667
        k(  111) = (   0.4000000   0.6599663  -0.2000000), wk =   0.0066667
        k(  112) = (  -0.4000000   0.6599663   0.2000000), wk =   0.0066667
        k(  113) = (  -0.2000000  -0.0942809  -0.4000000), wk =   0.0066667
        k(  114) = (  -0.2000000   0.0942809   0.4000000), wk =   0.0066667
        k(  115) = (   0.2000000  -0.0942809   0.4000000), wk =   0.0066667
        k(  116) = (  -0.4000000  -0.0942809   0.2000000), wk =   0.0066667
        k(  117) = (   0.4000000  -0.0942809  -0.2000000), wk =   0.0066667
        k(  118) = (  -0.4000000   0.0942809  -0.2000000), wk =   0.0066667
        k(  119) = (   0.4000000   0.0942809   0.2000000), wk =   0.0066667
        k(  120) = (  -0.2000000  -0.2357023  -0.2000000), wk =   0.0133333
        k(  121) = (  -0.2000000   0.2357023   0.2000000), wk =   0.0133333
        k(  122) = (   0.2000000  -0.2357023   0.2000000), wk =   0.0133333
        k(  123) = (  -0.2000000  -0.7542472   0.2000000), wk =   0.0066667
        k(  124) = (  -0.2000000   0.7542472  -0.2000000), wk =   0.0066667
        k(  125) = (   0.2000000  -0.7542472  -0.2000000), wk =   0.0066667
        k(  126) = (  -0.2000000  -0.8956686   0.4000000), wk =   0.0066667
        k(  127) = (  -0.2000000   0.8956686  -0.4000000), wk =   0.0066667
        k(  128) = (   0.2000000  -0.8956686  -0.4000000), wk =   0.0066667
        k(  129) = (   0.4000000  -0.8956686   0.2000000), wk =   0.0066667
        k(  130) = (  -0.4000000  -0.8956686  -0.2000000), wk =   0.0066667
        k(  131) = (   0.4000000   0.8956686  -0.2000000), wk =   0.0066667
        k(  132) = (  -0.4000000   0.8956686   0.2000000), wk =   0.0066667
        k(  133) = (  -0.2000000  -0.3299832  -0.4000000), wk =   0.0066667
        k(  134) = (  -0.2000000   0.3299832   0.4000000), wk =   0.0066667
        k(  135) = (   0.2000000  -0.3299832   0.4000000), wk =   0.0066667
        k(  136) = (  -0.4000000  -0.3299832   0.2000000), wk =   0.0066667
        k(  137) = (   0.4000000  -0.3299832  -0.2000000), wk =   0.0066667
        k(  138) = (  -0.4000000   0.3299832  -0.2000000), wk =   0.0066667
        k(  139) = (   0.4000000   0.3299832   0.2000000), wk =   0.0066667
        k(  140) = (  -0.2000000  -0.4714045  -0.2000000), wk =   0.0133333
        k(  141) = (  -0.2000000   0.4714045   0.2000000), wk =   0.0133333
        k(  142) = (   0.2000000  -0.4714045   0.2000000), wk =   0.0133333
        k(  143) = (  -0.2000000   0.4242641   0.2000000), wk =   0.0066667
        k(  144) = (  -0.2000000  -0.4242641  -0.2000000), wk =   0.0066667
        k(  145) = (   0.2000000   0.4242641  -0.2000000), wk =   0.0066667
        k(  146) = (  -0.2000000   0.2828427   0.4000000), wk =   0.0066667
        k(  147) = (  -0.2000000  -0.2828427  -0.4000000), wk =   0.0066667
        k(  148) = (   0.2000000   0.2828427  -0.4000000), wk =   0.0066667
        k(  149) = (   0.4000000   0.2828427   0.2000000), wk =   0.0066667
        k(  150) = (  -0.4000000   0.2828427  -0.2000000), wk =   0.0066667
        k(  151) = (   0.4000000  -0.2828427  -0.2000000), wk =   0.0066667
        k(  152) = (  -0.4000000  -0.2828427   0.2000000), wk =   0.0066667
        k(  153) = (  -0.2000000   0.8485281  -0.4000000), wk =   0.0066667
        k(  154) = (  -0.2000000  -0.8485281   0.4000000), wk =   0.0066667
        k(  155) = (   0.2000000   0.8485281   0.4000000), wk =   0.0066667
        k(  156) = (  -0.4000000   0.8485281   0.2000000), wk =   0.0066667
        k(  157) = (   0.4000000   0.8485281  -0.2000000), wk =   0.0066667
        k(  158) = (  -0.4000000  -0.8485281  -0.2000000), wk =   0.0066667
        k(  159) = (   0.4000000  -0.8485281   0.2000000), wk =   0.0066667
        k(  160) = (  -0.2000000   0.7071068  -0.2000000), wk =   0.0133333
        k(  161) = (  -0.2000000   0.1885618   0.2000000), wk =   0.0066667
        k(  162) = (  -0.2000000  -0.1885618  -0.2000000), wk =   0.0066667
        k(  163) = (   0.2000000   0.1885618  -0.2000000), wk =   0.0066667
        k(  164) = (  -0.2000000   0.0471405   0.4000000), wk =   0.0066667
        k(  165) = (  -0.2000000  -0.0471405  -0.4000000), wk =   0.0066667
        k(  166) = (   0.2000000   0.0471405  -0.4000000), wk =   0.0066667
        k(  167) = (   0.4000000   0.0471405   0.2000000), wk =   0.0066667
        k(  168) = (  -0.4000000   0.0471405  -0.2000000), wk =   0.0066667
        k(  169) = (   0.4000000  -0.0471405  -0.2000000), wk =   0.0066667
        k(  170) = (  -0.4000000  -0.0471405   0.2000000), wk =   0.0066667
        k(  171) = (  -0.2000000   0.6128259  -0.4000000), wk =   0.0066667
        k(  172) = (  -0.2000000  -0.6128259   0.4000000), wk =   0.0066667
        k(  173) = (   0.2000000   0.6128259   0.4000000), wk =   0.0066667
        k(  174) = (  -0.4000000   0.6128259   0.2000000), wk =   0.0066667
        k(  175) = (   0.4000000   0.6128259  -0.2000000), wk =   0.0066667
        k(  176) = (  -0.4000000  -0.6128259  -0.2000000), wk =   0.0066667
        k(  177) = (   0.4000000  -0.6128259   0.2000000), wk =   0.0066667
        k(  178) = (  -0.2000000  -0.0471405   0.2000000), wk =   0.0066667
        k(  179) = (  -0.2000000   0.0471405  -0.2000000), wk =   0.0066667
        k(  180) = (   0.2000000  -0.0471405  -0.2000000), wk =   0.0066667
        k(  181) = (  -0.2000000  -0.1885618   0.4000000), wk =   0.0066667
        k(  182) = (  -0.2000000   0.1885618  -0.4000000), wk =   0.0066667
        k(  183) = (   0.2000000  -0.1885618  -0.4000000), wk =   0.0066667
        k(  184) = (   0.4000000  -0.1885618   0.2000000), wk =   0.0066667
        k(  185) = (  -0.4000000  -0.1885618  -0.2000000), wk =   0.0066667
        k(  186) = (   0.4000000   0.1885618  -0.2000000), wk =   0.0066667
        k(  187) = (  -0.4000000   0.1885618   0.2000000), wk =   0.0066667
        k(  188) = (  -0.2000000   0.3771236  -0.4000000), wk =   0.0066667
        k(  189) = (  -0.2000000  -0.3771236   0.4000000), wk =   0.0066667
        k(  190) = (   0.2000000   0.3771236   0.4000000), wk =   0.0066667
        k(  191) = (  -0.4000000   0.3771236   0.2000000), wk =   0.0066667
        k(  192) = (   0.4000000   0.3771236  -0.2000000), wk =   0.0066667
        k(  193) = (  -0.4000000  -0.3771236  -0.2000000), wk =   0.0066667
        k(  194) = (   0.4000000  -0.3771236   0.2000000), wk =   0.0066667
        k(  195) = (  -0.4000000  -0.5656854   0.4000000), wk =   0.0066667
        k(  196) = (  -0.4000000   0.5656854  -0.4000000), wk =   0.0066667
        k(  197) = (   0.4000000  -0.5656854  -0.4000000), wk =   0.0066667
        k(  198) = (  -0.4000000  -0.0000000  -0.4000000), wk =   0.0133333
        k(  199) = (  -0.4000000  -0.8013877   0.4000000), wk =   0.0066667
        k(  200) = (  -0.4000000   0.8013877  -0.4000000), wk =   0.0066667
        k(  201) = (   0.4000000  -0.8013877  -0.4000000), wk =   0.0066667
        k(  202) = (  -0.4000000  -0.2357023  -0.4000000), wk =   0.0133333
        k(  203) = (  -0.4000000   0.2357023   0.4000000), wk =   0.0133333
        k(  204) = (   0.4000000  -0.2357023   0.4000000), wk =   0.0133333
        k(  205) = (  -0.4000000  -1.0370899   0.4000000), wk =   0.0066667
        k(  206) = (  -0.4000000   1.0370899  -0.4000000), wk =   0.0066667
        k(  207) = (   0.4000000  -1.0370899  -0.4000000), wk =   0.0066667
        k(  208) = (  -0.4000000  -0.4714045  -0.4000000), wk =   0.0133333
        k(  209) = (  -0.4000000   0.4714045   0.4000000), wk =   0.0133333
        k(  210) = (   0.4000000  -0.4714045   0.4000000), wk =   0.0133333
        k(  211) = (  -0.4000000   0.1414214   0.4000000), wk =   0.0066667
        k(  212) = (  -0.4000000  -0.1414214  -0.4000000), wk =   0.0066667
        k(  213) = (   0.4000000   0.1414214  -0.4000000), wk =   0.0066667
        k(  214) = (  -0.4000000   0.7071068  -0.4000000), wk =   0.0133333
        k(  215) = (  -0.4000000  -0.0942809   0.4000000), wk =   0.0066667
        k(  216) = (  -0.4000000   0.0942809  -0.4000000), wk =   0.0066667
        k(  217) = (   0.4000000  -0.0942809  -0.4000000), wk =   0.0066667
        k(  218) = (  -0.4000000  -0.3299832   0.4000000), wk =   0.0066667
        k(  219) = (  -0.4000000   0.3299832  -0.4000000), wk =   0.0066667
        k(  220) = (   0.4000000  -0.3299832  -0.4000000), wk =   0.0066667

                       cryst. coord.
        k(    1) = (   0.0000000   0.0000000   0.0000000), wk =   0.0133333
        k(    2) = (   0.0000000  -0.0000000   0.2000000), wk =   0.0133333
        k(    3) = (   0.0000000  -0.0000000   0.4000000), wk =   0.0133333
        k(    4) = (   0.0000000   0.1666667   0.0000000), wk =   0.0266667
        k(    5) = (   0.0000000   0.1666667   0.2000000), wk =   0.0133333
        k(    6) = (   0.0000000   0.1666667   0.4000000), wk =   0.0133333
        k(    7) = (   0.0000000   0.1666667  -0.4000000), wk =   0.0133333
        k(    8) = (   0.0000000   0.1666667  -0.2000000), wk =   0.0133333
        k(    9) = (   0.0000000   0.3333333   0.0000000), wk =   0.0266667
        k(   10) = (   0.0000000   0.3333333   0.2000000), wk =   0.0133333
        k(   11) = (   0.0000000   0.3333333   0.4000000), wk =   0.0133333
        k(   12) = (   0.0000000   0.3333333  -0.4000000), wk =   0.0133333
        k(   13) = (   0.0000000   0.3333333  -0.2000000), wk =   0.0133333
        k(   14) = (   0.0000000  -0.5000000   0.0000000), wk =   0.0133333
        k(   15) = (   0.0000000  -0.5000000   0.2000000), wk =   0.0133333
        k(   16) = (   0.0000000  -0.5000000   0.4000000), wk =   0.0133333
        k(   17) = (   0.2000000  -0.0000000   0.2000000), wk =   0.0066667
        k(   18) = (   0.2000000  -0.0000000   0.4000000), wk =   0.0066667
        k(   19) = (   0.2000000   0.0000000  -0.4000000), wk =   0.0066667
        k(   20) = (   0.2000000  -0.0000000  -0.2000000), wk =   0.0133333
        k(   21) = (   0.2000000   0.1666667   0.2000000), wk =   0.0066667
        k(   22) = (   0.2000000   0.1666667   0.4000000), wk =   0.0066667
        k(   23) = (   0.2000000   0.1666667  -0.4000000), wk =   0.0066667
        k(   24) = (   0.2000000   0.1666667  -0.2000000), wk =   0.0133333
        k(   25) = (   0.2000000   0.3333333   0.2000000), wk =   0.0066667
        k(   26) = (   0.2000000   0.3333333   0.4000000), wk =   0.0066667
        k(   27) = (   0.2000000   0.3333333  -0.4000000), wk =   0.0066667
        k(   28) = (   0.2000000   0.3333333  -0.2000000), wk =   0.0133333
        k(   29) = (   0.2000000  -0.5000000   0.2000000), wk =   0.0066667
        k(   30) = (   0.2000000  -0.5000000   0.4000000), wk =   0.0066667
        k(   31) = (   0.2000000  -0.5000000  -0.4000000), wk =   0.0066667
        k(   32) = (   0.2000000  -0.5000000  -0.2000000), wk =   0.0133333
        k(   33) = (   0.2000000  -0.3333333   0.2000000), wk =   0.0066667
        k(   34) = (   0.2000000  -0.3333333   0.4000000), wk =   0.0066667
        k(   35) = (   0.2000000  -0.3333333  -0.4000000), wk =   0.0066667
        k(   36) = (   0.2000000  -0.1666667   0.2000000), wk =   0.0066667
        k(   37) = (   0.2000000  -0.1666667   0.4000000), wk =   0.0066667
        k(   38) = (   0.2000000  -0.1666667  -0.4000000), wk =   0.0066667
        k(   39) = (   0.4000000  -0.0000000   0.4000000), wk =   0.0066667
        k(   40) = (   0.4000000  -0.0000000  -0.4000000), wk =   0.0133333
        k(   41) = (   0.4000000   0.1666667   0.4000000), wk =   0.0066667
        k(   42) = (   0.4000000   0.1666667  -0.4000000), wk =   0.0133333
        k(   43) = (   0.4000000   0.3333333   0.4000000), wk =   0.0066667
        k(   44) = (   0.4000000   0.3333333  -0.4000000), wk =   0.0133333
        k(   45) = (   0.4000000  -0.5000000   0.4000000), wk =   0.0066667
        k(   46) = (   0.4000000  -0.5000000  -0.4000000), wk =   0.0133333
        k(   47) = (   0.4000000  -0.3333333   0.4000000), wk =   0.0066667
        k(   48) = (   0.4000000  -0.1666667   0.4000000), wk =   0.0066667
        k(   49) = (   0.0000000  -0.2000000   0.2000000), wk =   0.0133333
        k(   50) = (   0.2000000  -0.2000000   0.0000000), wk =   0.0133333
        k(   51) = (  -0.2000000   0.0000000   0.0000000), wk =   0.0133333
        k(   52) = (   0.0000000  -0.4000000   0.4000000), wk =   0.0133333
        k(   53) = (   0.4000000  -0.4000000   0.0000000), wk =   0.0133333
        k(   54) = (  -0.4000000   0.0000000   0.0000000), wk =   0.0133333
        k(   55) = (   0.0000000  -0.3666667   0.2000000), wk =   0.0133333
        k(   56) = (   0.2000000  -0.3666667   0.0000000), wk =   0.0133333
        k(   57) = (  -0.2000000  -0.1666667   0.0000000), wk =   0.0133333
        k(   58) = (   0.0000000  -0.5666667   0.4000000), wk =   0.0133333
        k(   59) = (   0.4000000  -0.5666667   0.0000000), wk =   0.0133333
        k(   60) = (  -0.4000000  -0.1666667   0.0000000), wk =   0.0133333
        k(   61) = (   0.0000000   0.2333333  -0.4000000), wk =   0.0133333
        k(   62) = (  -0.4000000   0.2333333   0.0000000), wk =   0.0133333
        k(   63) = (   0.4000000  -0.1666667   0.0000000), wk =   0.0133333
        k(   64) = (   0.0000000   0.0333333  -0.2000000), wk =   0.0133333
        k(   65) = (  -0.2000000   0.0333333   0.0000000), wk =   0.0133333
        k(   66) = (   0.2000000  -0.1666667   0.0000000), wk =   0.0133333
        k(   67) = (   0.0000000  -0.5333333   0.2000000), wk =   0.0133333
        k(   68) = (   0.2000000  -0.5333333   0.0000000), wk =   0.0133333
        k(   69) = (  -0.2000000  -0.3333333   0.0000000), wk =   0.0133333
        k(   70) = (   0.0000000  -0.7333333   0.4000000), wk =   0.0133333
        k(   71) = (   0.4000000  -0.7333333   0.0000000), wk =   0.0133333
        k(   72) = (  -0.4000000  -0.3333333   0.0000000), wk =   0.0133333
        k(   73) = (   0.0000000   0.0666667  -0.4000000), wk =   0.0133333
        k(   74) = (  -0.4000000   0.0666667   0.0000000), wk =   0.0133333
        k(   75) = (   0.4000000  -0.3333333   0.0000000), wk =   0.0133333
        k(   76) = (   0.0000000  -0.1333333  -0.2000000), wk =   0.0133333
        k(   77) = (  -0.2000000  -0.1333333   0.0000000), wk =   0.0133333
        k(   78) = (   0.2000000  -0.3333333   0.0000000), wk =   0.0133333
        k(   79) = (   0.0000000   0.3000000   0.2000000), wk =   0.0133333
        k(   80) = (   0.2000000   0.3000000   0.0000000), wk =   0.0133333
        k(   81) = (  -0.2000000   0.5000000   0.0000000), wk =   0.0133333
        k(   82) = (   0.0000000   0.1000000   0.4000000), wk =   0.0133333
        k(   83) = (   0.4000000   0.1000000   0.0000000), wk =   0.0133333
        k(   84) = (  -0.4000000   0.5000000   0.0000000), wk =   0.0133333
        k(   85) = (  -0.2000000  -0.2000000   0.2000000), wk =   0.0066667
        k(   86) = (  -0.2000000   0.4000000  -0.2000000), wk =   0.0066667
        k(   87) = (   0.2000000  -0.2000000  -0.2000000), wk =   0.0066667
        k(   88) = (  -0.2000000  -0.4000000   0.4000000), wk =   0.0066667
        k(   89) = (  -0.2000000   0.6000000  -0.4000000), wk =   0.0066667
        k(   90) = (   0.2000000  -0.2000000  -0.4000000), wk =   0.0066667
        k(   91) = (   0.4000000  -0.6000000   0.2000000), wk =   0.0066667
        k(   92) = (  -0.4000000   0.0000000  -0.2000000), wk =   0.0066667
        k(   93) = (   0.4000000   0.2000000  -0.2000000), wk =   0.0066667
        k(   94) = (  -0.4000000   0.4000000   0.2000000), wk =   0.0066667
        k(   95) = (  -0.2000000   0.4000000  -0.4000000), wk =   0.0066667
        k(   96) = (  -0.2000000  -0.2000000   0.4000000), wk =   0.0066667
        k(   97) = (   0.2000000  -0.2000000   0.4000000), wk =   0.0066667
        k(   98) = (  -0.4000000   0.2000000   0.2000000), wk =   0.0066667
        k(   99) = (   0.4000000  -0.0000000  -0.2000000), wk =   0.0066667
        k(  100) = (  -0.4000000   0.2000000  -0.2000000), wk =   0.0066667
        k(  101) = (   0.4000000  -0.4000000   0.2000000), wk =   0.0066667
        k(  102) = (  -0.2000000   0.2000000  -0.2000000), wk =   0.0133333
        k(  103) = (  -0.2000000  -0.3666667   0.2000000), wk =   0.0066667
        k(  104) = (  -0.2000000   0.5666667  -0.2000000), wk =   0.0066667
        k(  105) = (   0.2000000  -0.3666667  -0.2000000), wk =   0.0066667
        k(  106) = (  -0.2000000  -0.5666667   0.4000000), wk =   0.0066667
        k(  107) = (  -0.2000000   0.7666667  -0.4000000), wk =   0.0066667
        k(  108) = (   0.2000000  -0.3666667  -0.4000000), wk =   0.0066667
        k(  109) = (   0.4000000  -0.7666667   0.2000000), wk =   0.0066667
        k(  110) = (  -0.4000000  -0.1666667  -0.2000000), wk =   0.0066667
        k(  111) = (   0.4000000   0.3666667  -0.2000000), wk =   0.0066667
        k(  112) = (  -0.4000000   0.5666667   0.2000000), wk =   0.0066667
        k(  113) = (  -0.2000000   0.2333333  -0.4000000), wk =   0.0066667
        k(  114) = (  -0.2000000  -0.0333333   0.4000000), wk =   0.0066667
        k(  115) = (   0.2000000  -0.3666667   0.4000000), wk =   0.0066667
        k(  116) = (  -0.4000000   0.0333333   0.2000000), wk =   0.0066667
        k(  117) = (   0.4000000  -0.1666667  -0.2000000), wk =   0.0066667
        k(  118) = (  -0.4000000   0.3666667  -0.2000000), wk =   0.0066667
        k(  119) = (   0.4000000  -0.2333333   0.2000000), wk =   0.0066667
        k(  120) = (  -0.2000000   0.0333333  -0.2000000), wk =   0.0133333
        k(  121) = (  -0.2000000   0.1666667   0.2000000), wk =   0.0133333
        k(  122) = (   0.2000000  -0.3666667   0.2000000), wk =   0.0133333
        k(  123) = (  -0.2000000  -0.5333333   0.2000000), wk =   0.0066667
        k(  124) = (  -0.2000000   0.7333333  -0.2000000), wk =   0.0066667
        k(  125) = (   0.2000000  -0.5333333  -0.2000000), wk =   0.0066667
        k(  126) = (  -0.2000000  -0.7333333   0.4000000), wk =   0.0066667
        k(  127) = (  -0.2000000   0.9333333  -0.4000000), wk =   0.0066667
        k(  128) = (   0.2000000  -0.5333333  -0.4000000), wk =   0.0066667
        k(  129) = (   0.4000000  -0.9333333   0.2000000), wk =   0.0066667
        k(  130) = (  -0.4000000  -0.3333333  -0.2000000), wk =   0.0066667
        k(  131) = (   0.4000000   0.5333333  -0.2000000), wk =   0.0066667
        k(  132) = (  -0.4000000   0.7333333   0.2000000), wk =   0.0066667
        k(  133) = (  -0.2000000   0.0666667  -0.4000000), wk =   0.0066667
        k(  134) = (  -0.2000000   0.1333333   0.4000000), wk =   0.0066667
        k(  135) = (   0.2000000  -0.5333333   0.4000000), wk =   0.0066667
        k(  136) = (  -0.4000000  -0.1333333   0.2000000), wk =   0.0066667
        k(  137) = (   0.4000000  -0.3333333  -0.2000000), wk =   0.0066667
        k(  138) = (  -0.4000000   0.5333333  -0.2000000), wk =   0.0066667
        k(  139) = (   0.4000000  -0.0666667   0.2000000), wk =   0.0066667
        k(  140) = (  -0.2000000  -0.1333333  -0.2000000), wk =   0.0133333
        k(  141) = (  -0.2000000   0.3333333   0.2000000), wk =   0.0133333
        k(  142) = (   0.2000000  -0.5333333   0.2000000), wk =   0.0133333
        k(  143) = (  -0.2000000   0.3000000   0.2000000), wk =   0.0066667
        k(  144) = (  -0.2000000  -0.1000000  -0.2000000), wk =   0.0066667
        k(  145) = (   0.2000000   0.3000000  -0.2000000), wk =   0.0066667
        k(  146) = (  -0.2000000   0.1000000   0.4000000), wk =   0.0066667
        k(  147) = (  -0.2000000   0.1000000  -0.4000000), wk =   0.0066667
        k(  148) = (   0.2000000   0.3000000  -0.4000000), wk =   0.0066667
        k(  149) = (   0.4000000  -0.1000000   0.2000000), wk =   0.0066667
        k(  150) = (  -0.4000000   0.5000000  -0.2000000), wk =   0.0066667
        k(  151) = (   0.4000000  -0.3000000  -0.2000000), wk =   0.0066667
        k(  152) = (  -0.4000000  -0.1000000   0.2000000), wk =   0.0066667
        k(  153) = (  -0.2000000   0.9000000  -0.4000000), wk =   0.0066667
        k(  154) = (  -0.2000000  -0.7000000   0.4000000), wk =   0.0066667
        k(  155) = (   0.2000000   0.3000000   0.4000000), wk =   0.0066667
        k(  156) = (  -0.4000000   0.7000000   0.2000000), wk =   0.0066667
        k(  157) = (   0.4000000   0.5000000  -0.2000000), wk =   0.0066667
        k(  158) = (  -0.4000000  -0.3000000  -0.2000000), wk =   0.0066667
        k(  159) = (   0.4000000  -0.9000000   0.2000000), wk =   0.0066667
        k(  160) = (  -0.2000000   0.7000000  -0.2000000), wk =   0.0133333
        k(  161) = (  -0.2000000   0.1333333   0.2000000), wk =   0.0066667
        k(  162) = (  -0.2000000   0.0666667  -0.2000000), wk =   0.0066667
        k(  163) = (   0.2000000   0.1333333  -0.2000000), wk =   0.0066667
        k(  164) = (  -0.2000000  -0.0666667   0.4000000), wk =   0.0066667
        k(  165) = (  -0.2000000   0.2666667  -0.4000000), wk =   0.0066667
        k(  166) = (   0.2000000   0.1333333  -0.4000000), wk =   0.0066667
        k(  167) = (   0.4000000  -0.2666667   0.2000000), wk =   0.0066667
        k(  168) = (  -0.4000000   0.3333333  -0.2000000), wk =   0.0066667
        k(  169) = (   0.4000000  -0.1333333  -0.2000000), wk =   0.0066667
        k(  170) = (  -0.4000000   0.0666667   0.2000000), wk =   0.0066667
        k(  171) = (  -0.2000000   0.7333333  -0.4000000), wk =   0.0066667
        k(  172) = (  -0.2000000  -0.5333333   0.4000000), wk =   0.0066667
        k(  173) = (   0.2000000   0.1333333   0.4000000), wk =   0.0066667
        k(  174) = (  -0.4000000   0.5333333   0.2000000), wk =   0.0066667
        k(  175) = (   0.4000000   0.3333333  -0.2000000), wk =   0.0066667
        k(  176) = (  -0.4000000  -0.1333333  -0.2000000), wk =   0.0066667
        k(  177) = (   0.4000000  -0.7333333   0.2000000), wk =   0.0066667
        k(  178) = (  -0.2000000  -0.0333333   0.2000000), wk =   0.0066667
        k(  179) = (  -0.2000000   0.2333333  -0.2000000), wk =   0.0066667
        k(  180) = (   0.2000000  -0.0333333  -0.2000000), wk =   0.0066667
        k(  181) = (  -0.2000000  -0.2333333   0.4000000), wk =   0.0066667
        k(  182) = (  -0.2000000   0.4333333  -0.4000000), wk =   0.0066667
        k(  183) = (   0.2000000  -0.0333333  -0.4000000), wk =   0.0066667
        k(  184) = (   0.4000000  -0.4333333   0.2000000), wk =   0.0066667
        k(  185) = (  -0.4000000   0.1666667  -0.2000000), wk =   0.0066667
        k(  186) = (   0.4000000   0.0333333  -0.2000000), wk =   0.0066667
        k(  187) = (  -0.4000000   0.2333333   0.2000000), wk =   0.0066667
        k(  188) = (  -0.2000000   0.5666667  -0.4000000), wk =   0.0066667
        k(  189) = (  -0.2000000  -0.3666667   0.4000000), wk =   0.0066667
        k(  190) = (   0.2000000  -0.0333333   0.4000000), wk =   0.0066667
        k(  191) = (  -0.4000000   0.3666667   0.2000000), wk =   0.0066667
        k(  192) = (   0.4000000   0.1666667  -0.2000000), wk =   0.0066667
        k(  193) = (  -0.4000000   0.0333333  -0.2000000), wk =   0.0066667
        k(  194) = (   0.4000000  -0.5666667   0.2000000), wk =   0.0066667
        k(  195) = (  -0.4000000  -0.4000000   0.4000000), wk =   0.0066667
        k(  196) = (  -0.4000000   0.8000000  -0.4000000), wk =   0.0066667
        k(  197) = (   0.4000000  -0.4000000  -0.4000000), wk =   0.0066667
        k(  198) = (  -0.4000000   0.4000000  -0.4000000), wk =   0.0133333
        k(  199) = (  -0.4000000  -0.5666667   0.4000000), wk =   0.0066667
        k(  200) = (  -0.4000000   0.9666667  -0.4000000), wk =   0.0066667
        k(  201) = (   0.4000000  -0.5666667  -0.4000000), wk =   0.0066667
        k(  202) = (  -0.4000000   0.2333333  -0.4000000), wk =   0.0133333
        k(  203) = (  -0.4000000   0.1666667   0.4000000), wk =   0.0133333
        k(  204) = (   0.4000000  -0.5666667   0.4000000), wk =   0.0133333
        k(  205) = (  -0.4000000  -0.7333333   0.4000000), wk =   0.0066667
        k(  206) = (  -0.4000000   1.1333333  -0.4000000), wk =   0.0066667
        k(  207) = (   0.4000000  -0.7333333  -0.4000000), wk =   0.0066667
        k(  208) = (  -0.4000000   0.0666667  -0.4000000), wk =   0.0133333
        k(  209) = (  -0.4000000   0.3333333   0.4000000), wk =   0.0133333
        k(  210) = (   0.4000000  -0.7333333   0.4000000), wk =   0.0133333
        k(  211) = (  -0.4000000   0.1000000   0.4000000), wk =   0.0066667
        k(  212) = (  -0.4000000   0.3000000  -0.4000000), wk =   0.0066667
        k(  213) = (   0.4000000   0.1000000  -0.4000000), wk =   0.0066667
        k(  214) = (  -0.4000000   0.9000000  -0.4000000), wk =   0.0133333
        k(  215) = (  -0.4000000  -0.0666667   0.4000000), wk =   0.0066667
        k(  216) = (  -0.4000000   0.4666667  -0.4000000), wk =   0.0066667
        k(  217) = (   0.4000000  -0.0666667  -0.4000000), wk =   0.0066667
        k(  218) = (  -0.4000000  -0.2333333   0.4000000), wk =   0.0066667
        k(  219) = (  -0.4000000   0.6333333  -0.4000000), wk =   0.0066667
        k(  220) = (   0.4000000  -0.2333333  -0.4000000), wk =   0.0066667

     Dense  grid:  2526263 G-vectors     FFT dimensions: ( 192, 192, 192)

     Smooth grid:   892711 G-vectors     FFT dimensions: ( 135, 135, 135)

     Dynamical RAM for                 wfc:     441.26 MB

     Dynamical RAM for     wfc (w. buffer):   12796.53 MB

     Dynamical RAM for           str. fact:      77.10 MB

     Dynamical RAM for           local pot:       0.00 MB

     Dynamical RAM for          nlocal pot:    1656.00 MB

     Dynamical RAM for                qrad:      15.20 MB

     Dynamical RAM for          rho,v,vnew:     277.64 MB

     Dynamical RAM for               rhoin:      92.55 MB

     Dynamical RAM for            rho*nmix:     616.76 MB

     Dynamical RAM for           G-vectors:     151.36 MB

     Dynamical RAM for          h,s,v(r/c):      49.13 MB

     Dynamical RAM for          <psi|beta>:       3.84 MB

     Dynamical RAM for                 psi:    1765.04 MB

     Dynamical RAM for                hpsi:    1765.04 MB

     Dynamical RAM for                spsi:    1765.04 MB

     Dynamical RAM for      wfcinit/wfcrot:    1568.83 MB

     Dynamical RAM for           addusdens:    8210.66 MB

     Estimated static dynamical RAM per process >      15.69 GB

     Estimated max dynamical RAM per process >      23.71 GB

     Estimated total dynamical RAM >     189.68 GB

SIRIUS version :  4.07
git hash       : d75abff3bebe8471eec883d10636ecc565e4a4f2
build date     : Tue,  8 Aug 2017 11:51:15
start time     : Wed,  9 Aug 2017 09:32:57

number of MPI ranks           : 8
MPI grid                      : 1 1 8
maximum number of OMP threads : 10

FFT context for density and potential
=====================================
  comm size                             : 1
  plane wave cutoff                     : 18.973666
  grid size                             : 192 192 192   total : 7077888
  grid limits                           : -95 96   -95 96   -95 96
  number of G-vectors within the cutoff : 1263132
  local number of G-vectors             : 157891
  number of G-shells                    : 7214

FFT context for coarse grid
===========================
  comm size                             : 1
  plane wave cutoff                     : 13.416408
  grid size                             : 135 135 135   total : 2460375
  grid limits                           : -67 67   -67 67   -67 67
  number of G-vectors within the cutoff : 446356
  number of G-shells                    : 3416


Unit cell
--------------------------------------------------------------------------------
lattice vectors
  a1 :      31.4056042668       0.0000000000       0.0000000000 
  a2 :     -15.7028021334      22.2071157443     -15.7028021334 
  a3 :       0.0000000000       0.0000000000      31.4056042668 
reciprocal lattice vectors
  b1 :       0.2000657352       0.1414678380      -0.0000000000 
  b2 :       0.0000000000       0.2829356761       0.0000000000 
  b3 :      -0.0000000000       0.1414678380       0.2000657352 

unit cell volume :     21903.14428573 [a.u.^3]
1/sqrt(omega)    :         0.00675689
MT volume        : 0.000000 ( 0.00%)
IT volume        : 21903.144286 (100.00%)

number of atom types : 2
type id : 0   symbol : Cs   mt_radius : 203.303613
type id : 1   symbol :  I   mt_radius : 206.377721
number of atoms : 54
number of symmetry classes : 54
number of PAW atoms : 0

space group number   : 1
international symbol : P1
Hall symbol          : P 1
number of operations : 1
transformation matrix : 
   -1.000000    -0.000000     0.000000 
    1.000000    -1.000000     0.000000 
   -0.000000     0.000000     1.000000 
origin shift : 
    0.000000     0.000000     0.000000

symbol         : Cs
--------------------------------------------------------------------------------
name           : 
zn             : 9
mass           : 132.905452
mt_radius      : 203.303613
num_mt_points  : 905
grid_origin    : 0.000000
grid_name      : external

number of core electrons    : 0.000000
number of valence electrons : 9.000000

total number of radial functions : 6
lmax of radial functions : 2
maximum number of radial functions per orbital quantum number: 2
total number of basis functions : 18
number of aw basis functions : 0
number of lo basis functions : 18

symbol         : I
--------------------------------------------------------------------------------
name           : 
zn             : 7
mass           : 126.904470
mt_radius      : 206.377721
num_mt_points  : 893
grid_origin    : 0.000000
grid_name      : external

number of core electrons    : 0.000000
number of valence electrons : 7.000000

total number of radial functions : 6
lmax of radial functions : 2
maximum number of radial functions per orbital quantum number: 2
total number of basis functions : 18
number of aw basis functions : 0
number of lo basis functions : 18

total nuclear charge               : 432
number of core electrons           : 0.000000
number of valence electrons        : 432.000000
total number of electrons          : 432.000000
total number of aw basis functions : 0
total number of lo basis functions : 972
number of first-variational states : 259
number of bands                    : 259
number of spins                    : 1
number of magnetic dimensions      : 0
lmax_apw                           : -1
lmax_rho                           : 4
lmax_pot                           : 4
lmax_rf                            : 2
smearing width                     : 0.010000
cyclic block size                  : 128
|G+k| cutoff                       : 6.708204
valence relativity                 : zora
core relativity                    : Dirac
standard eigen-value solver        : LAPACK
generalized eigen-value solver     : LAPACK
processing unit                    : GPU
  name                             : Tesla P100-PCIE-16GB 
  major                            : 6 
  minor                            : 0 
  asyncEngineCount                 : 2 
  canMapHostMemory                 : 1 
  clockRate                        : 1328500 kHz 
  concurrentKernels                : 1 
  ECCEnabled                       : 1 
  l2CacheSize                      : 4096 kB 
  maxGridSize                      : 2147483647 65535 65535 
  maxThreadsDim                    : 1024 1024 64 
  maxThreadsPerBlock               : 1024 
  maxThreadsPerMultiProcessor      : 2048 
  memoryBusWidth                   : 4096 bits 
  memoryClockRate                  : 715000 kHz 
  memPitch                         : 2147483647 
  multiProcessorCount              : 56 
  regsPerBlock                     : 65536 
  sharedMemPerBlock                : 48 kB 
  totalConstMem                    : 64 kB 
  totalGlobalMem                   : 16666880 kB 
  available memory                 : 16063744 kB 

XC functionals
==============
1) XC_GGA_X_PBE: Perdew, Burke & Ernzerhof
J. P. Perdew, K. Burke, and M. Ernzerhof, Phys. Rev. Lett. 77, 3865 (1996) (10.1103/PhysRevLett.77.3865)
J. P. Perdew, K. Burke, and M. Ernzerhof, Phys. Rev. Lett. 78, 1396 (1997) (10.1103/PhysRevLett.78.1396)

2) XC_GGA_C_PBE: Perdew, Burke & Ernzerhof
J. P. Perdew, K. Burke, and M. Ernzerhof, Phys. Rev. Lett. 77, 3865 (1996) (10.1103/PhysRevLett.77.3865)
J. P. Perdew, K. Burke, and M. Ernzerhof, Phys. Rev. Lett. 78, 1396 (1997) (10.1103/PhysRevLett.78.1396)


total number of k-points : 220
--------------------------------------------------------------------------------
  ik                vk                    weight  num_gkvec
--------------------------------------------------------------------------------
   0     0.0000   0.0000   0.0000       0.006667     111643
   1     0.0000  -0.0000   0.2000       0.006667     111721
   2     0.0000  -0.0000   0.4000       0.006667     111678
   3     0.0000   0.1667   0.0000       0.013333     111711
   4     0.0000   0.1667   0.2000       0.006667     111696
   5     0.0000   0.1667   0.4000       0.006667     111607
   6     0.0000   0.1667  -0.4000       0.006667     111684
   7     0.0000   0.1667  -0.2000       0.006667     111722
   8     0.0000   0.3333   0.0000       0.013333     111668
   9     0.0000   0.3333   0.2000       0.006667     111613
  10     0.0000   0.3333   0.4000       0.006667     111613
  11     0.0000   0.3333  -0.4000       0.006667     111659
  12     0.0000   0.3333  -0.2000       0.006667     111691
  13     0.0000  -0.5000   0.0000       0.006667     111556
  14     0.0000  -0.5000   0.2000       0.006667     111655
  15     0.0000  -0.5000   0.4000       0.006667     111607
  16     0.2000  -0.0000   0.2000       0.003333     111667
  17     0.2000  -0.0000   0.4000       0.003333     111600
  18     0.2000   0.0000  -0.4000       0.003333     111665
  19     0.2000  -0.0000  -0.2000       0.006667     111711
  20     0.2000   0.1667   0.2000       0.003333     111613
  21     0.2000   0.1667   0.4000       0.003333     111629
  22     0.2000   0.1667  -0.4000       0.003333     111679
  23     0.2000   0.1667  -0.2000       0.006667     111687
  24     0.2000   0.3333   0.2000       0.003333     111625
  25     0.2000   0.3333   0.4000       0.003333     111601
  26     0.2000   0.3333  -0.4000       0.003333     111630
  27     0.2000   0.3333  -0.2000       0.006667     111630
  28     0.2000  -0.5000   0.2000       0.003333     111691
  29     0.2000  -0.5000   0.4000       0.003333     111616
  30     0.2000  -0.5000  -0.4000       0.003333     111630
  31     0.2000  -0.5000  -0.2000       0.006667     111608
  32     0.2000  -0.3333   0.2000       0.003333     111710
  33     0.2000  -0.3333   0.4000       0.003333     111679
  34     0.2000  -0.3333  -0.4000       0.003333     111629
  35     0.2000  -0.1667   0.2000       0.003333     111734
  36     0.2000  -0.1667   0.4000       0.003333     111647
  37     0.2000  -0.1667  -0.4000       0.003333     111629
  38     0.4000  -0.0000   0.4000       0.003333     111692
  39     0.4000  -0.0000  -0.4000       0.006667     111632
  40     0.4000   0.1667   0.4000       0.003333     111654
  41     0.4000   0.1667  -0.4000       0.006667     111641
  42     0.4000   0.3333   0.4000       0.003333     111619
  43     0.4000   0.3333  -0.4000       0.006667     111663
  44     0.4000  -0.5000   0.4000       0.003333     111628
  45     0.4000  -0.5000  -0.4000       0.006667     111648
  46     0.4000  -0.3333   0.4000       0.003333     111651
  47     0.4000  -0.1667   0.4000       0.003333     111604
  48     0.0000  -0.2000   0.2000       0.006667     111721
  49     0.2000  -0.2000   0.0000       0.006667     111721
  50    -0.2000   0.0000   0.0000       0.006667     111721
  51     0.0000  -0.4000   0.4000       0.006667     111678
  52     0.4000  -0.4000   0.0000       0.006667     111678
  53    -0.4000   0.0000   0.0000       0.006667     111678
  54     0.0000  -0.3667   0.2000       0.006667     111696
  55     0.2000  -0.3667   0.0000       0.006667     111696
  56    -0.2000  -0.1667   0.0000       0.006667     111696
  57     0.0000  -0.5667   0.4000       0.006667     111607
  58     0.4000  -0.5667   0.0000       0.006667     111607
  59    -0.4000  -0.1667   0.0000       0.006667     111607
  60     0.0000   0.2333  -0.4000       0.006667     111684
  61    -0.4000   0.2333   0.0000       0.006667     111684
  62     0.4000  -0.1667   0.0000       0.006667     111684
  63     0.0000   0.0333  -0.2000       0.006667     111722
  64    -0.2000   0.0333   0.0000       0.006667     111722
  65     0.2000  -0.1667   0.0000       0.006667     111722
  66     0.0000  -0.5333   0.2000       0.006667     111613
  67     0.2000  -0.5333   0.0000       0.006667     111613
  68    -0.2000  -0.3333   0.0000       0.006667     111613
  69     0.0000  -0.7333   0.4000       0.006667     111613
  70     0.4000  -0.7333   0.0000       0.006667     111613
  71    -0.4000  -0.3333   0.0000       0.006667     111613
  72     0.0000   0.0667  -0.4000       0.006667     111659
  73    -0.4000   0.0667   0.0000       0.006667     111659
  74     0.4000  -0.3333   0.0000       0.006667     111659
  75     0.0000  -0.1333  -0.2000       0.006667     111691
  76    -0.2000  -0.1333   0.0000       0.006667     111691
  77     0.2000  -0.3333   0.0000       0.006667     111691
  78     0.0000   0.3000   0.2000       0.006667     111655
  79     0.2000   0.3000   0.0000       0.006667     111655
  80    -0.2000   0.5000   0.0000       0.006667     111655
  81     0.0000   0.1000   0.4000       0.006667     111607
  82     0.4000   0.1000   0.0000       0.006667     111607
  83    -0.4000   0.5000   0.0000       0.006667     111607
  84    -0.2000  -0.2000   0.2000       0.003333     111667
  85    -0.2000   0.4000  -0.2000       0.003333     111667
  86     0.2000  -0.2000  -0.2000       0.003333     111667
  87    -0.2000  -0.4000   0.4000       0.003333     111600
  88    -0.2000   0.6000  -0.4000       0.003333     111600
  89     0.2000  -0.2000  -0.4000       0.003333     111600
  90     0.4000  -0.6000   0.2000       0.003333     111600
  91    -0.4000   0.0000  -0.2000       0.003333     111600
  92     0.4000   0.2000  -0.2000       0.003333     111600
  93    -0.4000   0.4000   0.2000       0.003333     111600
  94    -0.2000   0.4000  -0.4000       0.003333     111665
  95    -0.2000  -0.2000   0.4000       0.003333     111665
  96     0.2000  -0.2000   0.4000       0.003333     111665
  97    -0.4000   0.2000   0.2000       0.003333     111665
  98     0.4000  -0.0000  -0.2000       0.003333     111665
  99    -0.4000   0.2000  -0.2000       0.003333     111665
 100     0.4000  -0.4000   0.2000       0.003333     111665
 101    -0.2000   0.2000  -0.2000       0.006667     111711
 102    -0.2000  -0.3667   0.2000       0.003333     111613
 103    -0.2000   0.5667  -0.2000       0.003333     111613
 104     0.2000  -0.3667  -0.2000       0.003333     111613
 105    -0.2000  -0.5667   0.4000       0.003333     111629
 106    -0.2000   0.7667  -0.4000       0.003333     111629
 107     0.2000  -0.3667  -0.4000       0.003333     111629
 108     0.4000  -0.7667   0.2000       0.003333     111629
 109    -0.4000  -0.1667  -0.2000       0.003333     111629
 110     0.4000   0.3667  -0.2000       0.003333     111629
 111    -0.4000   0.5667   0.2000       0.003333     111629
 112    -0.2000   0.2333  -0.4000       0.003333     111679
 113    -0.2000  -0.0333   0.4000       0.003333     111679
 114     0.2000  -0.3667   0.4000       0.003333     111679
 115    -0.4000   0.0333   0.2000       0.003333     111679
 116     0.4000  -0.1667  -0.2000       0.003333     111679
 117    -0.4000   0.3667  -0.2000       0.003333     111679
 118     0.4000  -0.2333   0.2000       0.003333     111679
 119    -0.2000   0.0333  -0.2000       0.006667     111687
 120    -0.2000   0.1667   0.2000       0.006667     111687
 121     0.2000  -0.3667   0.2000       0.006667     111687
 122    -0.2000  -0.5333   0.2000       0.003333     111625
 123    -0.2000   0.7333  -0.2000       0.003333     111625
 124     0.2000  -0.5333  -0.2000       0.003333     111625
 125    -0.2000  -0.7333   0.4000       0.003333     111601
 126    -0.2000   0.9333  -0.4000       0.003333     111601
 127     0.2000  -0.5333  -0.4000       0.003333     111601
 128     0.4000  -0.9333   0.2000       0.003333     111601
 129    -0.4000  -0.3333  -0.2000       0.003333     111601
 130     0.4000   0.5333  -0.2000       0.003333     111601
 131    -0.4000   0.7333   0.2000       0.003333     111601
 132    -0.2000   0.0667  -0.4000       0.003333     111630
 133    -0.2000   0.1333   0.4000       0.003333     111630
 134     0.2000  -0.5333   0.4000       0.003333     111630
 135    -0.4000  -0.1333   0.2000       0.003333     111630
 136     0.4000  -0.3333  -0.2000       0.003333     111630
 137    -0.4000   0.5333  -0.2000       0.003333     111630
 138     0.4000  -0.0667   0.2000       0.003333     111630
 139    -0.2000  -0.1333  -0.2000       0.006667     111630
 140    -0.2000   0.3333   0.2000       0.006667     111630
 141     0.2000  -0.5333   0.2000       0.006667     111630
 142    -0.2000   0.3000   0.2000       0.003333     111691
 143    -0.2000  -0.1000  -0.2000       0.003333     111691
 144     0.2000   0.3000  -0.2000       0.003333     111691
 145    -0.2000   0.1000   0.4000       0.003333     111616
 146    -0.2000   0.1000  -0.4000       0.003333     111616
 147     0.2000   0.3000  -0.4000       0.003333     111616
 148     0.4000  -0.1000   0.2000       0.003333     111616
 149    -0.4000   0.5000  -0.2000       0.003333     111616
 150     0.4000  -0.3000  -0.2000       0.003333     111616
 151    -0.4000  -0.1000   0.2000       0.003333     111616
 152    -0.2000   0.9000  -0.4000       0.003333     111630
 153    -0.2000  -0.7000   0.4000       0.003333     111630
 154     0.2000   0.3000   0.4000       0.003333     111630
 155    -0.4000   0.7000   0.2000       0.003333     111630
 156     0.4000   0.5000  -0.2000       0.003333     111630
 157    -0.4000  -0.3000  -0.2000       0.003333     111630
 158     0.4000  -0.9000   0.2000       0.003333     111630
 159    -0.2000   0.7000  -0.2000       0.006667     111608
 160    -0.2000   0.1333   0.2000       0.003333     111710
 161    -0.2000   0.0667  -0.2000       0.003333     111710
 162     0.2000   0.1333  -0.2000       0.003333     111710
 163    -0.2000  -0.0667   0.4000       0.003333     111679
 164    -0.2000   0.2667  -0.4000       0.003333     111679
 165     0.2000   0.1333  -0.4000       0.003333     111679
 166     0.4000  -0.2667   0.2000       0.003333     111679
 167    -0.4000   0.3333  -0.2000       0.003333     111679
 168     0.4000  -0.1333  -0.2000       0.003333     111679
 169    -0.4000   0.0667   0.2000       0.003333     111679
 170    -0.2000   0.7333  -0.4000       0.003333     111629
 171    -0.2000  -0.5333   0.4000       0.003333     111629
 172     0.2000   0.1333   0.4000       0.003333     111629
 173    -0.4000   0.5333   0.2000       0.003333     111629
 174     0.4000   0.3333  -0.2000       0.003333     111629
 175    -0.4000  -0.1333  -0.2000       0.003333     111629
 176     0.4000  -0.7333   0.2000       0.003333     111629
 177    -0.2000  -0.0333   0.2000       0.003333     111734
 178    -0.2000   0.2333  -0.2000       0.003333     111734
 179     0.2000  -0.0333  -0.2000       0.003333     111734
 180    -0.2000  -0.2333   0.4000       0.003333     111647
 181    -0.2000   0.4333  -0.4000       0.003333     111647
 182     0.2000  -0.0333  -0.4000       0.003333     111647
 183     0.4000  -0.4333   0.2000       0.003333     111647
 184    -0.4000   0.1667  -0.2000       0.003333     111647
 185     0.4000   0.0333  -0.2000       0.003333     111647
 186    -0.4000   0.2333   0.2000       0.003333     111647
 187    -0.2000   0.5667  -0.4000       0.003333     111629
 188    -0.2000  -0.3667   0.4000       0.003333     111629
 189     0.2000  -0.0333   0.4000       0.003333     111629
 190    -0.4000   0.3667   0.2000       0.003333     111629
 191     0.4000   0.1667  -0.2000       0.003333     111629
 192    -0.4000   0.0333  -0.2000       0.003333     111629
 193     0.4000  -0.5667   0.2000       0.003333     111629
 194    -0.4000  -0.4000   0.4000       0.003333     111692
 195    -0.4000   0.8000  -0.4000       0.003333     111692
 196     0.4000  -0.4000  -0.4000       0.003333     111692
 197    -0.4000   0.4000  -0.4000       0.006667     111632
 198    -0.4000  -0.5667   0.4000       0.003333     111654
 199    -0.4000   0.9667  -0.4000       0.003333     111654
 200     0.4000  -0.5667  -0.4000       0.003333     111654
 201    -0.4000   0.2333  -0.4000       0.006667     111641
 202    -0.4000   0.1667   0.4000       0.006667     111641
 203     0.4000  -0.5667   0.4000       0.006667     111641
 204    -0.4000  -0.7333   0.4000       0.003333     111619
 205    -0.4000   1.1333  -0.4000       0.003333     111619
 206     0.4000  -0.7333  -0.4000       0.003333     111619
 207    -0.4000   0.0667  -0.4000       0.006667     111663
 208    -0.4000   0.3333   0.4000       0.006667     111663
 209     0.4000  -0.7333   0.4000       0.006667     111663
 210    -0.4000   0.1000   0.4000       0.003333     111628
 211    -0.4000   0.3000  -0.4000       0.003333     111628
 212     0.4000   0.1000  -0.4000       0.003333     111628
 213    -0.4000   0.9000  -0.4000       0.006667     111648
 214    -0.4000  -0.0667   0.4000       0.003333     111651
 215    -0.4000   0.4667  -0.4000       0.003333     111651
 216     0.4000  -0.0667  -0.4000       0.003333     111651
 217    -0.4000  -0.2333   0.4000       0.003333     111604
 218    -0.4000   0.6333  -0.4000       0.003333     111604
 219     0.4000  -0.2333  -0.4000       0.003333     111604

=== Warning at line 43 of file Density/initial_density.hpp ===
wrong initial charge density
  integral of the density : 432
  target number of electrons : 432


     Self-consistent Calculation

     iteration #  1     ecut=    45.00 Ry     beta=0.35
     ethr =  1.00E-02
Lowest band energies
ik :  0,    -0.684281   -0.684258   -0.684221   -0.684196   -0.684178   -0.684170   -0.684150   -0.684136   -0.684104   -0.684093
ik :  1,    -0.684302   -0.684261   -0.684241   -0.684195   -0.684180   -0.684166   -0.684145   -0.684129   -0.684106   -0.684095
ik :  2,    -0.684327   -0.684268   -0.684247   -0.684188   -0.684176   -0.684168   -0.684137   -0.684122   -0.684105   -0.684093
ik :  3,    -0.684290   -0.684261   -0.684218   -0.684195   -0.684184   -0.684171   -0.684150   -0.684128   -0.684104   -0.684099
ik :  4,    -0.684315   -0.684270   -0.684248   -0.684193   -0.684186   -0.684171   -0.684148   -0.684126   -0.684108   -0.684097
ik :  5,    -0.684332   -0.684282   -0.684235   -0.684190   -0.684177   -0.684174   -0.684134   -0.684126   -0.684102   -0.684093
ik :  6,    -0.684321   -0.684286   -0.684229   -0.684190   -0.684181   -0.684172   -0.684138   -0.684121   -0.684106   -0.684092
ik :  7,    -0.684302   -0.684267   -0.684212   -0.684191   -0.684181   -0.684166   -0.684143   -0.684131   -0.684100   -0.684095
ik :  8,    -0.684327   -0.684267   -0.684230   -0.684199   -0.684195   -0.684178   -0.684152   -0.684122   -0.684110   -0.684098
ik :  9,    -0.684346   -0.684283   -0.684235   -0.684201   -0.684194   -0.684176   -0.684149   -0.684127   -0.684106   -0.684097
ik : 10,    -0.684334   -0.684293   -0.684226   -0.684195   -0.684185   -0.684171   -0.684140   -0.684122   -0.684104   -0.684095
ik : 11,    -0.684329   -0.684285   -0.684217   -0.684187   -0.684183   -0.684169   -0.684140   -0.684120   -0.684106   -0.684094
ik : 12,    -0.684316   -0.684277   -0.684213   -0.684189   -0.684187   -0.684164   -0.684154   -0.684125   -0.684103   -0.684097
ik : 13,    -0.684352   -0.684266   -0.684236   -0.684205   -0.684201   -0.684181   -0.684152   -0.684122   -0.684111   -0.684096
ik : 14,    -0.684342   -0.684285   -0.684224   -0.684199   -0.684195   -0.684169   -0.684155   -0.684121   -0.684104   -0.684099
ik : 15,    -0.684329   -0.684288   -0.684216   -0.684187   -0.684182   -0.684165   -0.684144   -0.684116   -0.684105   -0.684095
ik : 16,    -0.684333   -0.684260   -0.684248   -0.684211   -0.684180   -0.684155   -0.684144   -0.684124   -0.684100   -0.684094
ik : 17,    -0.684339   -0.684273   -0.684247   -0.684204   -0.684182   -0.684159   -0.684138   -0.684126   -0.684106   -0.684088
ik : 18,    -0.684315   -0.684279   -0.684241   -0.684206   -0.684183   -0.684163   -0.684138   -0.684127   -0.684107   -0.684084
ik : 19,    -0.684299   -0.684263   -0.684227   -0.684206   -0.684181   -0.684161   -0.684149   -0.684124   -0.684108   -0.684083
ik : 20,    -0.684350   -0.684279   -0.684234   -0.684215   -0.684185   -0.684164   -0.684151   -0.684120   -0.684105   -0.684086
ik : 21,    -0.684335   -0.684292   -0.684234   -0.684208   -0.684189   -0.684166   -0.684139   -0.684125   -0.684104   -0.684083
ik : 22,    -0.684323   -0.684282   -0.684226   -0.684208   -0.684191   -0.684163   -0.684140   -0.684128   -0.684107   -0.684086
ik : 23,    -0.684317   -0.684271   -0.684225   -0.684203   -0.684184   -0.684156   -0.684150   -0.684135   -0.684103   -0.684089
ik : 24,    -0.684346   -0.684291   -0.684234   -0.684213   -0.684179   -0.684171   -0.684155   -0.684116   -0.684105   -0.684085
ik : 25,    -0.684330   -0.684292   -0.684226   -0.684207   -0.684183   -0.684165   -0.684142   -0.684121   -0.684106   -0.684087
ik : 26,    -0.684329   -0.684283   -0.684223   -0.684211   -0.684179   -0.684154   -0.684141   -0.684133   -0.684107   -0.684092
ik : 27,    -0.684339   -0.684272   -0.684232   -0.684214   -0.684175   -0.684162   -0.684145   -0.684141   -0.684104   -0.684098
ik : 28,    -0.684324   -0.684290   -0.684224   -0.684208   -0.684179   -0.684161   -0.684153   -0.684115   -0.684103   -0.684092
ik : 29,    -0.684329   -0.684290   -0.684224   -0.684209   -0.684177   -0.684155   -0.684142   -0.684120   -0.684108   -0.684092
ik : 30,    -0.684337   -0.684295   -0.684231   -0.684217   -0.684173   -0.684157   -0.684145   -0.684132   -0.684111   -0.684096
ik : 31,    -0.684347   -0.684279   -0.684245   -0.684225   -0.684174   -0.684169   -0.684146   -0.684138   -0.684109   -0.684098
ik : 32,    -0.684313   -0.684280   -0.684224   -0.684207   -0.684177   -0.684154   -0.684149   -0.684117   -0.684106   -0.684095
ik : 33,    -0.684329   -0.684293   -0.684237   -0.684211   -0.684178   -0.684156   -0.684143   -0.684124   -0.684109   -0.684096
ik : 34,    -0.684334   -0.684294   -0.684242   -0.684214   -0.684171   -0.684161   -0.684143   -0.684131   -0.684112   -0.684096
ik : 35,    -0.684314   -0.684266   -0.684238   -0.684210   -0.684175   -0.684153   -0.684146   -0.684123   -0.684102   -0.684100
ik : 36,    -0.684341   -0.684279   -0.684250   -0.684206   -0.684176   -0.684156   -0.684142   -0.684131   -0.684107   -0.684096
ik : 37,    -0.684320   -0.684273   -0.684257   -0.684206   -0.684171   -0.684159   -0.684142   -0.684129   -0.684110   -0.684090
ik : 38,    -0.684337   -0.684276   -0.684251   -0.684221   -0.684187   -0.684160   -0.684139   -0.684128   -0.684106   -0.684078
ik : 39,    -0.684329   -0.684276   -0.684252   -0.684225   -0.684189   -0.684164   -0.684138   -0.684128   -0.684107   -0.684077
ik : 40,    -0.684332   -0.684286   -0.684244   -0.684225   -0.684185   -0.684163   -0.684138   -0.684128   -0.684107   -0.684078
ik : 41,    -0.684335   -0.684278   -0.684250   -0.684224   -0.684181   -0.684162   -0.684141   -0.684126   -0.684111   -0.684084
ik : 42,    -0.684329   -0.684294   -0.684246   -0.684229   -0.684176   -0.684157   -0.684141   -0.684126   -0.684114   -0.684088
ik : 43,    -0.684344   -0.684292   -0.684251   -0.684228   -0.684169   -0.684162   -0.684146   -0.684126   -0.684119   -0.684096
ik : 44,    -0.684334   -0.684298   -0.684246   -0.684231   -0.684177   -0.684151   -0.684145   -0.684126   -0.684117   -0.684096
ik : 45,    -0.684342   -0.684297   -0.684251   -0.684234   -0.684171   -0.684155   -0.684149   -0.684127   -0.684120   -0.684098
ik : 46,    -0.684349   -0.684294   -0.684256   -0.684230   -0.684173   -0.684152   -0.684146   -0.684130   -0.684116   -0.684098
ik : 47,    -0.684349   -0.684276   -0.684261   -0.684223   -0.684174   -0.684158   -0.684143   -0.684126   -0.684112   -0.684091
ik : 48,    -0.684300   -0.684267   -0.684208   -0.684190   -0.684181   -0.684165   -0.684144   -0.684130   -0.684100   -0.684096
ik : 49,    -0.684295   -0.684267   -0.684222   -0.684210   -0.684174   -0.684158   -0.684152   -0.684112   -0.684110   -0.684096
ik : 50,    -0.684299   -0.684256   -0.684230   -0.684210   -0.684173   -0.684154   -0.684151   -0.684126   -0.684102   -0.684084
ik : 51,    -0.684328   -0.684285   -0.684213   -0.684185   -0.684182   -0.684166   -0.684142   -0.684119   -0.684104   -0.684094
ik : 52,    -0.684307   -0.684283   -0.684227   -0.684219   -0.684172   -0.684155   -0.684142   -0.684121   -0.684107   -0.684084
ik : 53,    -0.684346   -0.684248   -0.684236   -0.684226   -0.684168   -0.684150   -0.684145   -0.684118   -0.684102   -0.684082
ik : 54,    -0.684321   -0.684280   -0.684214   -0.684190   -0.684189   -0.684165   -0.684156   -0.684123   -0.684103   -0.684098
ik : 55,    -0.684308   -0.684278   -0.684224   -0.684216   -0.684178   -0.684165   -0.684153   -0.684119   -0.684105   -0.684095
ik : 56,    -0.684332   -0.684260   -0.684235   -0.684215   -0.684179   -0.684163   -0.684151   -0.684132   -0.684101   -0.684096
ik : 57,    -0.684330   -0.684290   -0.684219   -0.684190   -0.684183   -0.684167   -0.684143   -0.684116   -0.684105   -0.684094
ik : 58,    -0.684319   -0.684280   -0.684230   -0.684222   -0.684173   -0.684157   -0.684144   -0.684121   -0.684107   -0.684084
ik : 59,    -0.684352   -0.684255   -0.684238   -0.684229   -0.684169   -0.684155   -0.684147   -0.684120   -0.684102   -0.684087
ik : 60,    -0.684319   -0.684285   -0.684224   -0.684190   -0.684182   -0.684171   -0.684138   -0.684120   -0.684106   -0.684092
ik : 61,    -0.684316   -0.684269   -0.684234   -0.684222   -0.684169   -0.684159   -0.684142   -0.684115   -0.684107   -0.684083
ik : 62,    -0.684323   -0.684264   -0.684235   -0.684223   -0.684168   -0.684158   -0.684142   -0.684116   -0.684105   -0.684082
ik : 63,    -0.684296   -0.684261   -0.684229   -0.684193   -0.684179   -0.684166   -0.684144   -0.684127   -0.684104   -0.684092
ik : 64,    -0.684302   -0.684257   -0.684224   -0.684213   -0.684172   -0.684154   -0.684153   -0.684124   -0.684104   -0.684085
ik : 65,    -0.684293   -0.684263   -0.684221   -0.684211   -0.684173   -0.684156   -0.684151   -0.684114   -0.684108   -0.684093
ik : 66,    -0.684344   -0.684283   -0.684226   -0.684200   -0.684195   -0.684170   -0.684153   -0.684121   -0.684103   -0.684099
ik : 67,    -0.684343   -0.684276   -0.684233   -0.684227   -0.684179   -0.684170   -0.684156   -0.684119   -0.684108   -0.684093
ik : 68,    -0.684353   -0.684267   -0.684238   -0.684227   -0.684178   -0.684169   -0.684156   -0.684125   -0.684106   -0.684095
ik : 69,    -0.684334   -0.684292   -0.684230   -0.684194   -0.684184   -0.684172   -0.684136   -0.684126   -0.684103   -0.684094
ik : 70,    -0.684348   -0.684268   -0.684239   -0.684230   -0.684172   -0.684159   -0.684147   -0.684120   -0.684106   -0.684087
ik : 71,    -0.684338   -0.684274   -0.684236   -0.684228   -0.684173   -0.684160   -0.684146   -0.684120   -0.684107   -0.684086
ik : 72,    -0.684322   -0.684275   -0.684240   -0.684190   -0.684178   -0.684170   -0.684137   -0.684122   -0.684106   -0.684092
ik : 73,    -0.684340   -0.684254   -0.684236   -0.684226   -0.684168   -0.684153   -0.684145   -0.684117   -0.684104   -0.684082
ik : 74,    -0.684312   -0.684277   -0.684230   -0.684221   -0.684172   -0.684157   -0.684142   -0.684118   -0.684108   -0.684084
ik : 75,    -0.684308   -0.684264   -0.684250   -0.684193   -0.684185   -0.684169   -0.684147   -0.684125   -0.684107   -0.684098
ik : 76,    -0.684323   -0.684258   -0.684232   -0.684212   -0.684178   -0.684161   -0.684149   -0.684130   -0.684101   -0.684093
ik : 77,    -0.684302   -0.684277   -0.684222   -0.684214   -0.684177   -0.684163   -0.684152   -0.684118   -0.684105   -0.684095
ik : 78,    -0.684342   -0.684281   -0.684238   -0.684200   -0.684193   -0.684176   -0.684148   -0.684127   -0.684108   -0.684096
ik : 79,    -0.684352   -0.684266   -0.684239   -0.684225   -0.684178   -0.684168   -0.684156   -0.684127   -0.684105   -0.684095
ik : 80,    -0.684336   -0.684277   -0.684232   -0.684225   -0.684179   -0.684169   -0.684154   -0.684118   -0.684107   -0.684093
ik : 81,    -0.684331   -0.684273   -0.684241   -0.684188   -0.684175   -0.684171   -0.684136   -0.684124   -0.684104   -0.684094
ik : 82,    -0.684353   -0.684248   -0.684238   -0.684228   -0.684169   -0.684152   -0.684146   -0.684120   -0.684101   -0.684086
ik : 83,    -0.684307   -0.684286   -0.684228   -0.684221   -0.684172   -0.684156   -0.684142   -0.684122   -0.684106   -0.684084
ik : 84,    -0.684322   -0.684273   -0.684227   -0.684205   -0.684183   -0.684155   -0.684149   -0.684138   -0.684103   -0.684091
[...]
qe|run_pwscf                                                      :      1  3558.5806  3558.5806  3558.5806  3558.5806       0.04
qe|run_pwscf|electrons                                            :      1  3538.9753  3538.9753  3538.9753  3538.9753       0.00
qe|run_pwscf|init_run                                             :      1     2.3802     2.3802     2.3802     2.3802      34.23
qe|run_pwscf|punch                                                :      1     8.7321     8.7321     8.7321     8.7321     100.00
qe|run_pwscf|setup                                                :      1     0.0111     0.0111     0.0111     0.0111     100.00
qe|run_pwscf|setup_sirius                                         :      1     7.1392     7.1392     7.1392     7.1392       0.18
qe|veff                                                           :     29   132.5805     4.4915     4.6531     4.5717      95.89
sddk::FFT3D::FFT3D                                                :      2     0.3707     0.0129     0.3578     0.1854     100.00
sddk::FFT3D::prepare                                              :   1712     5.5091     0.0027     0.0071     0.0032       0.22
sddk::FFT3D::prepare|cpu                                          :   1712     0.0876     0.0000     0.0001     0.0001     100.00
sddk::FFT3D::prepare|gpu                                          :   1712     5.4094     0.0027     0.0071     0.0032     100.00
sddk::FFT3D::transform                                            : 1192923  1045.5082     0.0007     0.1253     0.0009       0.23
sddk::FFT3D::transform_xy                                         : 1192923   785.7972     0.0005     0.0043     0.0007     100.00
sddk::FFT3D::transform_z                                          : 1192923   257.2654     0.0001     0.1245     0.0002      37.73
sddk::FFT3D::transform_z_serial                                   : 1192923   160.1940     0.0001     0.1245     0.0001     100.00
sddk::Gvec::find_gvec_shells                                      :     30     0.4098     0.0088     0.1152     0.0137     100.00
sddk::Gvec::init                                                  :     30     0.6808     0.0147     0.1895     0.0227      39.81
sddk::matrix_storage::matrix_storage                              :   5012    28.1708     0.0000     0.2254     0.0056     100.00
sddk::matrix_storage::remap_forward                               :   7631     0.0135     0.0000     0.0000     0.0000     100.00
sddk::wave_functions::inner                                       :  19617   309.7636     0.0014     0.1742     0.0158     100.00
sddk::wave_functions::orthogonalize                               :   6819   296.7200     0.0071     0.3086     0.0435      25.16
sddk::wave_functions::transform                                   :  12933    19.4435     0.0001     0.0721     0.0015      98.95
sddk::wave_functions::transform|init                              :  12933     0.2034     0.0000     0.0000     0.0000     100.00
sirius::Augmentation_operator::generate_pw_coeffs                 :      2     0.8147     0.4061     0.4086     0.4073     100.00
sirius::Band::apply_h_o                                           :   6819  1361.2771     0.0246     1.7113     0.1996       0.01
sirius::Band::diag_pseudo_potential                               :    812  2812.6884     1.2819     8.8548     3.4639       0.02
sirius::Band::diag_pseudo_potential_davidson                      :    812  2806.0427     1.2739     8.8469     3.4557       1.11
sirius::Band::diag_pseudo_potential_davidson|alloc                :    812    55.6214     0.0671     0.0787     0.0685      89.16
sirius::Band::diag_pseudo_potential_davidson|evp                  :   6791   753.0877     0.0400     0.2258     0.1109     100.00
sirius::Band::diag_pseudo_potential_davidson|iter                 :    812  2580.0332     1.0116     8.4877     3.1774       0.01
sirius::Band::diag_pseudo_potential_davidson|update_phi           :    840     4.8171     0.0032     0.0766     0.0057       0.60
sirius::Band::diag_pseudo_potential_davidson|wf                   :    812     0.1349     0.0000     0.0626     0.0002      98.65
sirius::Band::get_h_diag                                          :    812    56.6139     0.0686     0.0803     0.0697     100.00
sirius::Band::get_o_diag                                          :    812    54.1254     0.0657     0.0715     0.0667     100.00
sirius::Band::initialize_subspace                                 :      1    86.8786    86.8786    86.8786    86.8786       0.00
sirius::Band::initialize_subspace|kp                              :     28    86.8275     2.9460     3.5750     3.1010      13.09
sirius::Band::initialize_subspace|kp|wf                           :     28     6.2858     0.2224     0.2312     0.2245     100.00
sirius::Band::residuals                                           :   6732   111.5558     0.0000     0.1141     0.0166       1.65
sirius::Band::residuals_aux                                       :   6058   101.4213     0.0044     0.1060     0.0167     100.00
sirius::Band::set_subspace_mtrx                                   :   6819    96.2565     0.0015     0.1366     0.0141       2.36
sirius::Band::solve_for_kset                                      :     29  2892.0715    38.4691   223.2712    99.7266       0.00
sirius::Beta_projectors::Beta_projectors                          :     28     0.8309     0.0291     0.0304     0.0297       0.03
sirius::Beta_projectors::generate_pw_coefs_t                      :     28     0.8307     0.0291     0.0304     0.0297     100.00
sirius::Beta_projectors_base::dismiss                             :   1652    28.5475     0.0001     0.0556     0.0173     100.00
sirius::Beta_projectors_base::generate                            :   7631    64.6910     0.0073     0.5108     0.0085     100.00
sirius::Beta_projectors_base::inner                               :   7631   259.8235     0.0040     0.1893     0.0340     100.00
sirius::Beta_projectors_base::prepare                             :   1652    11.9240     0.0069     0.0100     0.0072     100.00
sirius::DFT_ground_state::ewald_energy                            :      1     0.0519     0.0519     0.0519     0.0519     100.00
sirius::DFT_ground_state::symmetrize                              :     29     1.2540     0.0358     0.0460     0.0432       0.94
sirius::Density::add_k_point_contribution_dm                      :    812    77.4726     0.0696     0.1037     0.0954       2.64
sirius::Density::add_k_point_contribution_rg                      :    812   285.3105     0.3476     0.3652     0.3514       1.78
sirius::Density::augment                                          :     29     2.3949     0.0825     0.0827     0.0826       1.32
sirius::Density::generate_pseudo_core_charge_density              :      1     0.0908     0.0908     0.0908     0.0908       0.31
sirius::Density::generate_rho_aug                                 :     29     2.3633     0.0814     0.0816     0.0815     100.00
sirius::Density::generate_valence                                 :     29   398.3124    13.6800    13.8119    13.7349       8.18
sirius::Density::initial_density                                  :      1     0.1325     0.1325     0.1325     0.1325      19.26
sirius::Density::symmetrize_density_matrix                        :     29     0.0333     0.0011     0.0012     0.0011     100.00
sirius::K_point::generate_gkvec                                   :     28     0.4257     0.0147     0.0154     0.0152       0.14
sirius::K_point::initialize                                       :     28     5.2824     0.1874     0.1919     0.1887      12.42
sirius::K_point_set::sync_band_energies                           :     29    78.1033     0.0003    11.0356     2.6932     100.00
sirius::Local_operator::apply_h                                   :   6819   817.8153     0.0016     0.7789     0.1199       6.25
sirius::Local_operator::prepare                                   :    870     4.6941     0.0038     0.0503     0.0054      89.56
sirius::Non_local_operator::Non_local_operator                    :   1680     0.0477     0.0000     0.0000     0.0000     100.00
sirius::Non_local_operator::apply                                 :  13638   288.3441     0.0057     0.1208     0.0211     100.00
sirius::Periodic_function::inner                                  :     87     0.1768     0.0019     0.0021     0.0020      65.77
sirius::Potential::Potential                                      :      1     0.3179     0.3179     0.3179     0.3179      16.78
sirius::Potential::generate_D_operator_matrix                     :     30     2.5579     0.0827     0.0894     0.0853     100.00
sirius::Potential::generate_local_potential                       :      1     0.2645     0.2645     0.2645     0.2645       0.11
sirius::Radial_integrals|aug                                      :      1     0.0541     0.0541     0.0541     0.0541     100.00
sirius::Radial_integrals|beta                                     :      2     0.2317     0.1128     0.1190     0.1159     100.00
sirius::Radial_integrals|rho_core_pseudo                          :      1     0.0156     0.0156     0.0156     0.0156     100.00
sirius::Radial_integrals|rho_pseudo                               :      1     0.0155     0.0155     0.0155     0.0155     100.00
sirius::Radial_integrals|vloc                                     :      1     0.1812     0.1812     0.1812     0.1812     100.00
sirius::Simulation_context::initialize                            :      1     1.8422     1.8422     1.8422     1.8422       0.05
sirius::Simulation_context_base::initialize                       :      1     1.0266     1.0266     1.0266     1.0266       9.90
sirius::Simulation_context_base::make_periodic_function           :      3     0.0986     0.0250     0.0477     0.0329     100.00
sirius::Smooth_periodic_function::fft_transform                   :    151     5.6558     0.0102     0.1028     0.0375      81.39
sirius::Smooth_periodic_function::gather_f_pw                     :    120     0.9870     0.0029     0.0320     0.0082     100.00
sirius::Symmetry::symmetrize_function_pw                          :     29     0.9566     0.0263     0.0360     0.0330      12.06
sirius::Symmetry::symmetrize_function_pw|local                    :     29     0.3240     0.0111     0.0112     0.0112     100.00
sirius::Symmetry::symmetrize_function_pw|mpi                      :     29     0.5173     0.0114     0.0202     0.0178     100.00
--------------------------------------------------------------------------------------------------------------------------------------------
+global_timer ( 3558.7535s, 0.00 % of self, 100.00 % of total)
|--qe|run_pwscf ( 3558.5806s, 100.00 %) 
qe|electrons ( 3538.9753s, 0.00 % of self, 99.44 % of total)
|--qe|electrons|scf ( 3446.1260s, 97.38 %) 
|--qe|electrons|init (   92.8474s, 2.62 %) 
qe|electrons|init (   92.8474s, 5.54 % of self, 2.61 % of total)
|--sirius::Band::initialize_subspace (   86.8786s, 93.57 %) 
|--sirius::Potential::Potential (    0.3179s, 0.34 %) 
|--sirius::Density::initial_density (    0.1325s, 0.14 %) 
|--sirius::Smooth_periodic_function::fft_transform (    0.0917s, 0.10 %) 
|--sirius::Density::generate_pseudo_core_charge_density (    0.0908s, 0.10 %) 
|--sirius::Potential::generate_D_operator_matrix (    0.0837s, 0.09 %) 
|--sirius::Smooth_periodic_function::gather_f_pw (    0.0553s, 0.06 %) 
|--sirius::DFT_ground_state::ewald_energy (    0.0519s, 0.06 %) 
|--sirius::Band::Band (    0.0000s, 0.00 %) 
qe|electrons|scf ( 3446.1260s, 0.01 % of self, 96.84 % of total)
|--sirius::Band::solve_for_kset ( 2892.0715s, 83.92 %) 
|--sirius::Density::generate_valence (  398.3124s, 11.56 %) 
|--qe|veff (  132.5805s, 3.85 %) 
|--qe|mix (   20.5488s, 0.60 %) 
|--sirius::DFT_ground_state::symmetrize (    1.2540s, 0.04 %) 
|--sirius::Smooth_periodic_function::fft_transform (    0.9711s, 0.03 %) 
|--sirius::Periodic_function::inner (    0.1163s, 0.00 %) 
qe|run_pwscf ( 3558.5806s, 0.04 % of self, 100.00 % of total)
|--qe|run_pwscf|electrons ( 3538.9753s, 99.45 %) 
|--qe|run_pwscf|punch (    8.7321s, 0.25 %) 
|--qe|run_pwscf|setup_sirius (    7.1392s, 0.20 %) 
|--qe|run_pwscf|init_run (    2.3802s, 0.07 %) 
|--qe|run_pwscf|setup (    0.0111s, 0.00 %) 
|--qe|run_pwscf|ions (    0.0000s, 0.00 %) 
|--qe|run_pwscf|forces (    0.0000s, 0.00 %) 
|--qe|run_pwscf|stress (    0.0000s, 0.00 %) 
qe|run_pwscf|electrons ( 3538.9753s, 0.00 % of self, 99.44 % of total)
|--qe|electrons ( 3538.9753s, 100.00 %) 
qe|veff (  132.5805s, 95.89 % of self, 3.73 % of total)
|--sirius::Smooth_periodic_function::fft_transform (    2.9746s, 2.24 %) 
|--sirius::Potential::generate_D_operator_matrix (    2.4742s, 1.87 %) 
sddk::FFT3D::transform ( 1045.5082s, 0.23 % of self, 29.38 % of total)
|--sddk::FFT3D::transform_xy (  785.7972s, 75.16 %) 
|--sddk::FFT3D::transform_z (  257.2654s, 24.61 %) 
sddk::FFT3D::transform_z (  257.2654s, 37.73 % of self, 7.23 % of total)
|--sddk::FFT3D::transform_z_serial (  160.1940s, 62.27 %) 
sddk::wave_functions::orthogonalize (  296.7200s, 25.16 % of self, 8.34 % of total)
|--sddk::wave_functions::inner (  215.7826s, 72.72 %) 
|--sddk::wave_functions::transform (    6.2709s, 2.11 %) 
sirius::Band::apply_h_o ( 1361.2771s, 0.01 % of self, 38.25 % of total)
|--sirius::Local_operator::apply_h (  817.8153s, 60.08 %) 
|--sirius::Non_local_operator::apply (  288.3441s, 21.18 %) 
|--sirius::Beta_projectors_base::inner (  196.6697s, 14.45 %) 
|--sirius::Beta_projectors_base::generate (   58.2873s, 4.28 %) 
sirius::Band::diag_pseudo_potential ( 2812.6884s, 0.02 % of self, 79.04 % of total)
|--sirius::Band::diag_pseudo_potential_davidson ( 2806.0427s, 99.76 %) 
|--sirius::Local_operator::prepare (    3.3066s, 0.12 %) 
|--sddk::FFT3D::prepare (    2.6415s, 0.09 %) 
|--sirius::Non_local_operator::Non_local_operator (    0.0457s, 0.00 %) 
sirius::Band::diag_pseudo_potential_davidson ( 2806.0427s, 1.11 % of self, 78.85 % of total)
|--sirius::Band::diag_pseudo_potential_davidson|iter ( 2580.0332s, 91.95 %) 
|--sirius::Band::get_h_diag (   56.6139s, 2.02 %) 
|--sirius::Band::diag_pseudo_potential_davidson|alloc (   55.6214s, 1.98 %) 
|--sirius::Band::get_o_diag (   54.1254s, 1.93 %) 
|--sirius::Beta_projectors_base::dismiss (   28.3684s, 1.01 %) 
|--sirius::Band::diag_pseudo_potential_davidson|wf (    0.1349s, 0.00 %) 
sirius::Band::diag_pseudo_potential_davidson|alloc (   55.6214s, 89.16 % of self, 1.56 % of total)
|--sirius::Beta_projectors_base::prepare (    6.0273s, 10.84 %) 
sirius::Band::diag_pseudo_potential_davidson|iter ( 2580.0332s, 0.01 % of self, 72.50 % of total)
|--sirius::Band::apply_h_o ( 1326.2129s, 51.40 %) 
|--sirius::Band::diag_pseudo_potential_davidson|evp (  753.0877s, 29.19 %) 
|--sddk::wave_functions::orthogonalize (  290.6883s, 11.27 %) 
|--sirius::Band::residuals (  111.5558s, 4.32 %) 
|--sirius::Band::set_subspace_mtrx (   93.4674s, 3.62 %) 
|--sirius::Band::diag_pseudo_potential_davidson|update_phi (    4.8171s, 0.19 %) 
sirius::Band::initialize_subspace (   86.8786s, 0.00 % of self, 2.44 % of total)
|--sirius::Band::initialize_subspace|kp (   86.8275s, 99.94 %) 
|--sirius::Local_operator::prepare (    0.0503s, 0.06 %) 
sirius::Band::initialize_subspace|kp (   86.8275s, 13.09 % of self, 2.44 % of total)
|--sirius::Band::apply_h_o (   35.0642s, 40.38 %) 
|--sddk::matrix_storage::matrix_storage (   24.7994s, 28.56 %) 
|--sirius::Band::initialize_subspace|kp|wf (    6.2858s, 7.24 %) 
|--sddk::wave_functions::orthogonalize (    6.0318s, 6.95 %) 
|--sirius::Band::set_subspace_mtrx (    2.7891s, 3.21 %) 
|--sirius::Beta_projectors_base::prepare (    0.2040s, 0.23 %) 
|--sirius::Local_operator::prepare (    0.1115s, 0.13 %) 
|--sddk::wave_functions::transform (    0.0908s, 0.10 %) 
|--sddk::FFT3D::prepare (    0.0849s, 0.10 %) 
|--sirius::Beta_projectors_base::dismiss (    0.0025s, 0.00 %) 
|--sirius::Non_local_operator::Non_local_operator (    0.0020s, 0.00 %) 
sirius::Band::residuals (  111.5558s, 1.65 % of self, 3.13 % of total)
|--sirius::Band::residuals_aux (  101.4213s, 90.92 %) 
|--sddk::wave_functions::transform (    8.2934s, 7.43 %) 
sirius::Band::set_subspace_mtrx (   96.2565s, 2.36 % of self, 2.70 % of total)
|--sddk::wave_functions::inner (   93.9810s, 97.64 %) 
sirius::Band::solve_for_kset ( 2892.0715s, 0.00 % of self, 81.27 % of total)
|--sirius::Band::diag_pseudo_potential ( 2812.6884s, 97.26 %) 
|--sirius::K_point_set::sync_band_energies (   78.1033s, 2.70 %) 
|--sirius::Local_operator::prepare (    1.2258s, 0.04 %) 
sirius::Density::add_k_point_contribution_dm (   77.4726s, 2.64 % of self, 2.18 % of total)
|--sirius::Beta_projectors_base::inner (   63.1538s, 81.52 %) 
|--sirius::Beta_projectors_base::generate (    6.4037s, 8.27 %) 
|--sirius::Beta_projectors_base::prepare (    5.6927s, 7.35 %) 
|--sirius::Beta_projectors_base::dismiss (    0.1766s, 0.23 %) 
sirius::Density::add_k_point_contribution_rg (  285.3105s, 1.78 % of self, 8.02 % of total)
|--sddk::FFT3D::transform (  277.6693s, 97.32 %) 
|--sddk::FFT3D::prepare (    2.5656s, 0.90 %) 
sirius::Density::generate_valence (  398.3124s, 8.18 % of self, 11.19 % of total)
|--sirius::Density::add_k_point_contribution_rg (  285.3105s, 71.63 %) 
|--sirius::Density::add_k_point_contribution_dm (   77.4726s, 19.45 %) 
|--sirius::Density::augment (    2.3949s, 0.60 %) 
|--sirius::Smooth_periodic_function::fft_transform (    0.2972s, 0.07 %) 
|--sddk::FFT3D::prepare (    0.1040s, 0.03 %) 
|--sirius::Smooth_periodic_function::gather_f_pw (    0.0983s, 0.02 %) 
|--sirius::Density::symmetrize_density_matrix (    0.0333s, 0.01 %) 
|--sddk::matrix_storage::remap_forward (    0.0045s, 0.00 %) 
sirius::Local_operator::apply_h (  817.8153s, 6.25 % of self, 22.98 % of total)
|--sddk::FFT3D::transform (  766.6958s, 93.75 %) 
|--sddk::matrix_storage::remap_forward (    0.0090s, 0.00 %) 
|--sddk::matrix_storage::remap_backward (    0.0019s, 0.00 %) 

     init_run     :     12.94s CPU      2.38s WALL (       1 calls)

     Called by init_run:

     Called by electrons:
     v_of_rho     :    209.65s CPU    116.92s WALL (      30 calls)
     v_h          :     13.72s CPU      4.77s WALL (      30 calls)
     v_xc         :    195.70s CPU    111.90s WALL (      30 calls)
     mix_rho      :     37.08s CPU     14.04s WALL (      29 calls)

     Called by c_bands:

     Called by sum_band:

     Called by *egterg:

     Called by h_psi:

     General routines
     fft          :    143.96s CPU     34.38s WALL (     388 calls)

     Parallel routines
     fft_scatter  :     23.05s CPU     19.92s WALL (     388 calls)

     PWSCF        :     2h24m CPU        0h59m WALL


   This run was terminated on:  10:32:13   9Aug2017            

=------------------------------------------------------------------------------=
   JOB DONE.
=------------------------------------------------------------------------------=
Note: The following floating-point exceptions are signalling: IEEE_UNDERFLOW_FLAG IEEE_DENORMAL
Note: The following floating-point exceptions are signalling: IEEE_UNDERFLOW_FLAG IEEE_DENORMAL
Note: The following floating-point exceptions are signalling: IEEE_UNDERFLOW_FLAG IEEE_DENORMAL
Note: The following floating-point exceptions are signalling: IEEE_UNDERFLOW_FLAG IEEE_DENORMAL
Note: The following floating-point exceptions are signalling: IEEE_UNDERFLOW_FLAG IEEE_DENORMAL
Note: The following floating-point exceptions are signalling: IEEE_UNDERFLOW_FLAG IEEE_DENORMAL
Note: The following floating-point exceptions are signalling: IEEE_UNDERFLOW_FLAG IEEE_DENORMAL
Note: The following floating-point exceptions are signalling: IEEE_UNDERFLOW_FLAG IEEE_DENORMAL
